/*--------------------------------*- C++ -*----------------------------------*\
| =========                 |                                                 |
| \\      /  F ield         | OpenFOAM: The Open Source CFD Toolbox           |
|  \\    /   O peration     | Version:  v1906                                 |
|   \\  /    A nd           | Web:      www.OpenFOAM.com                      |
|    \\/     M anipulation  |                                                 |
\*---------------------------------------------------------------------------*/
FoamFile
{
    version     2.0;
    format      ascii;
    class       volVectorField;
    location    "10000";
    object      U;
}
// * * * * * * * * * * * * * * * * * * * * * * * * * * * * * * * * * * * * * //

dimensions      [0 1 -1 0 0 0 0];


internalField   nonuniform List<vector> 
16000
(
(0.34468084 -1.017472e-14 -0.0011995404)
(0.34739033 -1.3010705e-15 -0.004556806)
(0.35254532 2.662809e-15 -0.0081500049)
(0.35698255 -1.3612104e-15 -0.01196338)
(0.36216611 0 -0.016061378)
(0.3681721 1.3533187e-13 -0.020496968)
(0.37547684 9.1286884e-14 -0.02537112)
(0.38458629 9.1860424e-14 -0.030845823)
(0.39633403 -9.1797043e-14 -0.03715032)
(0.41141466 -5.6876715e-15 -0.04459732)
(0.43056406 8.9393373e-14 -0.053739082)
(0.45446141 1.0876292e-14 -0.065240318)
(0.4833492 -5.2418302e-15 -0.079384137)
(0.51604869 -7.5339559e-14 -0.096625539)
(0.55197937 6.7165805e-14 -0.11756726)
(0.59052772 7.7756549e-14 -0.14252545)
(0.62934121 6.9932421e-14 -0.17040377)
(0.66517671 8.3914552e-15 -0.20143542)
(0.69577859 -3.5727059e-21 -0.23603715)
(0.71928596 -1.3366113e-13 -0.27484767)
(0.73416748 -7.6716902e-15 -0.31801869)
(0.73950503 -6.0140603e-14 -0.36601865)
(0.7342572 1.4794652e-14 -0.41956352)
(0.71406121 -4.0372667e-14 -0.47735798)
(0.67156424 3.3114093e-14 -0.53375403)
(0.60081791 0 -0.57907308)
(0.49578165 1.0722772e-20 -0.59559865)
(0.33981681 2.1857549e-15 -0.55921729)
(0.18690014 -2.515291e-14 -0.37305872)
(0.10163252 -1.8943382e-14 -0.14176011)
(0.72220864 0 -0.0057616025)
(0.73632536 7.1718374e-16 -0.013376632)
(0.75299964 -4.1107455e-23 -0.021847386)
(0.76991775 7.3682456e-16 -0.031055007)
(0.78808526 -6.7284817e-23 -0.041154813)
(0.80736589 -4.9279353e-14 -0.052243322)
(0.82791202 -4.7835892e-14 -0.064474147)
(0.84969793 -9.2292546e-14 -0.077998007)
(0.87249507 -5.9054919e-15 -0.092975195)
(0.89619249 -4.3852529e-14 -0.10957499)
(0.92080679 -4.9035456e-14 -0.12790672)
(0.94550779 4.8305619e-14 -0.14754076)
(0.96870343 0 -0.1683921)
(0.99007071 4.3998677e-14 -0.19052578)
(1.0083776 -4.3476524e-14 -0.21373782)
(1.0222738 -4.8503232e-14 -0.23768112)
(1.0312247 -8.0528327e-14 -0.26267454)
(1.0354731 -5.3670254e-15 -0.28899145)
(1.035367 4.8448338e-14 -0.31704482)
(1.0298556 9.2080514e-14 -0.34689684)
(1.0179188 -1.0948857e-14 -0.37858741)
(0.99546535 4.9964184e-14 -0.41152651)
(0.95566996 5.6346468e-15 -0.44502792)
(0.89984085 -5.7606386e-15 -0.47869299)
(0.82357578 4.4408433e-14 -0.50743977)
(0.71877438 6.2263402e-15 -0.52352565)
(0.58640261 -3.0082143e-14 -0.50722025)
(0.439702 -5.9938968e-14 -0.43406775)
(0.29066728 2.0615312e-15 -0.30554778)
(0.20558134 2.1307856e-14 -0.10978042)
(0.94482865 8.2452553e-15 -0.0097616958)
(0.96329612 1.6789265e-14 -0.019612948)
(0.98299269 0 -0.030664237)
(1.0017711 -1.0768351e-15 -0.042516952)
(1.0201122 -3.3728749e-14 -0.055310559)
(1.0377143 0 -0.069049488)
(1.0543768 0 -0.083761309)
(1.0695749 2.2112502e-15 -0.099463847)
(1.0832612 -2.2097525e-15 -0.11622564)
(1.0951679 3.5381881e-14 -0.13407833)
(1.104697 3.5344547e-14 -0.15304599)
(1.1115302 0 -0.17314811)
(1.1153894 -4.4011617e-15 -0.19429419)
(1.1166418 4.3918554e-15 -0.21669091)
(1.1150814 3.5105558e-14 -0.24011459)
(1.1104729 3.9513458e-14 -0.2645185)
(1.1029201 -4.4018818e-15 -0.28994946)
(1.0896532 0 -0.31674604)
(1.072844 0 -0.34561713)
(1.0507983 -3.5801532e-14 -0.37633167)
(1.0215744 -3.5902612e-14 -0.40862333)
(0.98342408 -3.1794701e-14 -0.44205998)
(0.93311956 -4.6715149e-15 -0.47503569)
(0.86690672 -3.8289437e-14 -0.50315488)
(0.78145293 -3.9285988e-14 -0.51779929)
(0.67726635 -4.2062979e-14 -0.51799942)
(0.55730567 0 -0.47190712)
(0.43984593 2.407983e-14 -0.3891288)
(0.3430394 0 -0.25668855)
(0.2906829 -7.6704696e-15 -0.087842763)
(1.0658642 -1.3569863e-14 -0.013498216)
(1.0797456 -1.3797244e-14 -0.024341237)
(1.0936952 0 -0.036473496)
(1.1059407 0 -0.049254326)
(1.1168753 -6.9777498e-22 -0.062828862)
(1.126249 -1.8025832e-15 -0.077153219)
(1.134124 1.816248e-15 -0.09224558)
(1.1404145 -1.82399e-15 -0.10816215)
(1.1451965 3.65465e-15 -0.12499361)
(1.1483393 -1.8301897e-15 -0.14275073)
(1.1496318 0 -0.1614024)
(1.1490976 0 -0.18076342)
(1.1468293 -3.6451825e-15 -0.20089735)
(1.1423612 -2.5458241e-14 -0.22186727)
(1.1344011 -5.8078783e-14 -0.24362465)
(1.1249201 0 -0.26625161)
(1.1126537 5.448835e-14 -0.28964704)
(1.0972842 3.6452214e-15 -0.31440339)
(1.0777967 2.5501877e-14 -0.34058799)
(1.053118 -9.4408235e-22 -0.36779876)
(1.0219775 3.7256033e-14 -0.39560439)
(0.98209786 -3.8830158e-15 -0.42308486)
(0.93000729 3.7673064e-14 -0.44865409)
(0.86246191 -4.4600526e-15 -0.46818727)
(0.77832447 0 -0.47467588)
(0.68032393 -4.9753689e-15 -0.45692258)
(0.57573969 -3.3702997e-14 -0.40858855)
(0.47782953 1.8529147e-14 -0.3271371)
(0.40124371 2.2020865e-14 -0.21126523)
(0.36302461 0 -0.070824343)
(1.1176991 1.1344209e-14 -0.015637357)
(1.1265932 1.1485191e-14 -0.026737343)
(1.1352565 1.0890058e-14 -0.039103741)
(1.142462 7.3279507e-16 -0.052003728)
(1.1486578 2.3658915e-14 -0.065628021)
(1.1536311 2.3842624e-14 -0.079950756)
(1.1574644 -1.4986529e-15 -0.094991924)
(1.1601275 2.7074124e-14 -0.11082134)
(1.1615956 -3.0136061e-15 -0.12752756)
(1.1617481 3.0152571e-15 -0.14508241)
(1.1605542 1.5066377e-15 -0.16350643)
(1.1571454 2.4075296e-14 -0.1827503)
(1.1523529 -3.0051646e-15 -0.20284871)
(1.1455338 2.4019517e-14 -0.22373685)
(1.1364546 -1.912613e-21 -0.24550314)
(1.1249989 -3.0092936e-15 -0.26805047)
(1.1109735 -2.4135662e-14 -0.29138216)
(1.0936937 -2.1185459e-14 -0.31609893)
(1.0719211 -2.4597529e-14 -0.34198775)
(1.0443306 3.1588377e-15 -0.36836063)
(1.0093244 -3.3754765e-15 -0.39436678)
(0.96500369 0 -0.41860284)
(0.90919065 7.9032964e-21 -0.43844357)
(0.8407873 3.8097874e-14 -0.4493052)
(0.7601263 -4.457647e-15 -0.4452)
(0.67092688 4.150529e-14 -0.41935338)
(0.58337497 -4.6649465e-15 -0.36522991)
(0.50599547 -2.1019871e-14 -0.28383818)
(0.44992792 2.3764255e-15 -0.17914983)
(0.42264766 5.1736682e-15 -0.058944149)
(1.137708 -4.6718478e-15 -0.016992198)
(1.1441023 -9.1424253e-15 -0.028211299)
(1.150203 -9.8478055e-15 -0.040643786)
(1.1551698 1.9903109e-14 -0.053577954)
(1.1593512 1.888485e-14 -0.067209806)
(1.162571 -3.9337324e-14 -0.081514217)
(1.1648222 -1.2387133e-15 -0.096522316)
(1.1660772 1.2460878e-15 -0.11231658)
(1.1662974 -2.0013081e-14 -0.12893838)
(1.1651153 2.0073435e-14 -0.14637556)
(1.1625738 2.0123921e-14 -0.16462813)
(1.1584025 -2.0174263e-14 -0.18364129)
(1.1525623 2.52968e-15 -0.20342052)
(1.1448213 -2.5412257e-15 -0.22394872)
(1.1348641 4.0890912e-14 -0.24532053)
(1.1224068 1.7990929e-14 -0.26733799)
(1.1072486 2.3265363e-14 -0.29005442)
(1.0885736 2.1370629e-14 -0.31374794)
(1.0648577 0 -0.33777256)
(1.0349668 2.4399535e-14 -0.36138041)
(0.99764064 -2.6487925e-14 -0.38348291)
(0.95179084 -2.8568533e-14 -0.402845)
(0.89583565 -3.0459824e-14 -0.41699644)
(0.82930856 -4.0083673e-15 -0.42129482)
(0.75399015 -2.9092937e-14 -0.40999941)
(0.67478395 3.382091e-14 -0.37786288)
(0.60027645 3.1620267e-14 -0.32226842)
(0.53787822 1.8730014e-14 -0.24545084)
(0.49459987 -3.4477234e-21 -0.15312535)
(0.47378343 -8.9458492e-15 -0.04980528)
(1.1459447 -7.7586147e-15 -0.017956808)
(1.1511874 -8.0940982e-15 -0.029236908)
(1.1561196 7.706331e-15 -0.041668095)
(1.1600858 -1.5609993e-14 -0.05459138)
(1.1633505 4.9121602e-22 -0.06820564)
(1.1657461 3.3038818e-14 -0.082478336)
(1.1672117 0 -0.097445419)
(1.1678099 1.6883171e-14 -0.11318293)
(1.1672316 -7.5712401e-22 -0.1297161)
(1.1654002 -1.5029081e-14 -0.14705213)
(1.1621707 -1.9476401e-14 -0.16515793)
(1.1573648 2.1810636e-15 -0.18402739)
(1.1508155 1.5539686e-22 -0.20361356)
(1.142327 2.0506243e-22 -0.22389389)
(1.1315299 -2.0178142e-14 -0.24491488)
(1.1180785 -1.8312386e-14 -0.26647269)
(1.1015291 -1.6567243e-14 -0.28845877)
(1.080792 2.0559396e-14 -0.31082706)
(1.0547445 -2.7930841e-14 -0.33295969)
(1.02276 -2.1196443e-14 -0.35413945)
(0.98406768 2.5949032e-14 -0.37346793)
(0.93753383 2.4110736e-14 -0.38914449)
(0.8822079 3.6238011e-15 -0.39813909)
(0.81854674 -3.0124835e-14 -0.39618067)
(0.74924335 3.8517116e-14 -0.37875985)
(0.67971193 -3.868084e-14 -0.34240329)
(0.61731254 0 -0.28666096)
(0.56741005 0 -0.21477084)
(0.53398931 -1.4900482e-14 -0.1328792)
(0.51774906 9.8674522e-22 -0.04281596)
(1.1496497 6.6254426e-15 -0.01877954)
(1.154292 6.7215351e-15 -0.030101337)
(1.1585922 -7.2565877e-15 -0.042517884)
(1.162009 4.334715e-16 -0.055420131)
(1.1647431 -1.40841e-14 -0.069004798)
(1.1666291 -1.4294567e-14 -0.083234045)
(1.1676091 1.4501353e-14 -0.098164134)
(1.1678468 -1.4706035e-14 -0.11384961)
(1.1666308 1.6772503e-14 -0.13027628)
(1.1643094 -1.888595e-15 -0.14748228)
(1.1605308 0 -0.16542791)
(1.1551472 0 -0.18408439)
(1.1479527 -1.7662849e-14 -0.20339543)
(1.1387266 1.9881601e-14 -0.22333077)
(1.1270569 1.4384926e-14 -0.24384598)
(1.1123563 0 -0.26458343)
(1.0941348 2.3460275e-14 -0.28540013)
(1.0715681 -2.5668679e-14 -0.3061093)
(1.0442614 2.2147199e-14 -0.32633542)
(1.0114394 0 -0.34524129)
(0.97225485 6.2626432e-15 -0.36150379)
(0.92585136 -6.5847491e-15 -0.37312936)
(0.87198484 0 -0.37717923)
(0.81195404 5.988685e-14 -0.3699203)
(0.74904653 -5.7013278e-14 -0.34792533)
(0.68850538 -3.5424616e-15 -0.30934571)
(0.63622302 2.4299191e-14 -0.25522915)
(0.59585604 3.0418509e-14 -0.18899921)
(0.56936107 8.3853432e-16 -0.11645017)
(0.55620164 6.1592041e-15 -0.03725644)
(1.1513009 1.8202291e-16 -0.019526102)
(1.155573 -1.851664e-16 -0.030872692)
(1.1594599 1.2447855e-14 -0.043262837)
(1.1625099 -3.8401211e-16 -0.056134865)
(1.164877 1.1726912e-14 -0.069683126)
(1.1664088 1.2729236e-14 -0.083868296)
(1.1670504 -1.2950039e-14 -0.098750672)
(1.1666975 -1.3994816e-14 -0.11432053)
(1.1651515 1.5069027e-14 -0.13062966)
(1.1623447 0 -0.14770329)
(1.1580463 1.730749e-15 -0.16545221)
(1.1520804 -3.5187686e-15 -0.18385923)
(1.1442196 3.0430945e-14 -0.20284928)
(1.1341863 -1.4890915e-14 -0.22232219)
(1.1213052 -3.203527e-14 -0.24206402)
(1.1051795 0 -0.26177868)
(1.0856104 -1.8869334e-14 -0.28135836)
(1.062151 0 -0.30075607)
(1.0340788 0 -0.31927439)
(1.0006588 2.2867004e-14 -0.33585724)
(0.96124123 0 -0.34906349)
(0.91544104 6.2626625e-15 -0.3568344)
(0.86365993 -1.2915717e-14 -0.35641393)
(0.80777275 -2.6285462e-14 -0.34474183)
(0.75128982 8.8908388e-14 -0.31947406)
(0.69894432 -3.2491117e-14 -0.28003842)
(0.65522445 -2.5348801e-14 -0.22834756)
(0.62235453 -1.9992729e-14 -0.1676418)
(0.60102196 -2.2831205e-15 -0.10307587)
(0.59009457 -2.3807822e-15 -0.032779929)
(1.1518449 -1.6402131e-16 -0.020232663)
(1.1558478 1.6723552e-16 -0.031591972)
(1.1594153 -2.1848746e-14 -0.043946842)
(1.162172 1.114548e-14 -0.056779739)
(1.1642281 -1.1370416e-14 -0.070279601)
(1.1654318 4.3093259e-22 -0.084401327)
(1.1657082 -1.4783581e-15 -0.099198561)
(1.1649376 1.3566194e-14 -0.11466336)
(1.1629955 -1.229424e-14 -0.13084198)
(1.1597113 0 -0.14772824)
(1.1548917 1.2774457e-14 -0.16524627)
(1.1483321 0 -0.18335132)
(1.1397356 -1.3616372e-14 -0.20189686)
(1.1285991 0 -0.22068065)
(1.1145122 1.2051427e-14 -0.23952635)
(1.0974746 4.3375012e-15 -0.25828339)
(1.0772219 -4.6441142e-15 -0.2768331)
(1.0531204 2.9665884e-14 -0.29482504)
(1.0244673 -2.6168997e-14 -0.31143646)
(0.99072177 -2.2009565e-14 -0.32555303)
(0.95151065 0 -0.33567332)
(0.90686657 -2.3730635e-14 -0.33978676)
(0.85770078 0 -0.33544814)
(0.80624604 4.8954882e-14 -0.32029818)
(0.7559509 -2.4349473e-14 -0.29295257)
(0.71084048 2.0906675e-14 -0.25377271)
(0.6741687 -2.0325186e-14 -0.2050679)
(0.64708838 1.4069611e-15 -0.1496514)
(0.62956693 9.7309654e-15 -0.091972618)
(0.62026532 0 -0.029100763)
(1.1516913 0 -0.020912004)
(1.1554683 0 -0.032272308)
(1.1587558 1.0707122e-14 -0.044582086)
(1.1612447 -2.1886431e-14 -0.057365021)
(1.1630053 -9.8684473e-15 -0.070802383)
(1.1638887 -2.1512864e-14 -0.084844642)
(1.1638107 1.3737196e-15 -0.099537817)
(1.1626502 -1.2629901e-14 -0.11487266)
(1.1602831 1.4334172e-15 -0.13088853)
(1.1565184 1.0247632e-14 -0.14756026)
(1.1511638 -2.4008734e-14 -0.16479922)
(1.1439367 3.1461198e-15 -0.18249441)
(1.1343869 1.0196036e-14 -0.20043498)
(1.1222362 3.7075473e-15 -0.21846198)
(1.1074975 -1.9960053e-14 -0.2365427)
(1.0899149 0 -0.25443566)
(1.0690871 0 -0.27185473)
(1.0444119 -1.9205879e-14 -0.28832164)
(1.0153579 -2.6761823e-21 -0.3029604)
(0.98157424 0 -0.31461256)
(0.94295741 0 -0.3217667)
(0.8999125 2.2411109e-14 -0.32254271)
(0.85372742 0 -0.31488783)
(0.80678796 -2.8470372e-14 -0.29712753)
(0.76227918 5.6311129e-15 -0.26867089)
(0.7234639 -1.9262952e-14 -0.2304906)
(0.69257868 1.8691042e-14 -0.18497778)
(0.67001758 0 -0.13443379)
(0.65538421 -1.1483973e-14 -0.082659767)
(0.64731241 1.3183201e-15 -0.02603802)
(1.1510382 0 -0.021569329)
(1.1546058 -2.8809606e-16 -0.032918756)
(1.1576281 2.9495085e-16 -0.045172735)
(1.1598561 1.0263825e-14 -0.057893736)
(1.1613239 9.8867291e-15 -0.071253144)
(1.1618883 9.484798e-15 -0.085197693)
(1.1614572 0 -0.099766372)
(1.1599046 9.2651431e-15 -0.1149479)
(1.1570972 -4.2047027e-23 -0.13076956)
(1.1528375 -9.7046812e-15 -0.14718508)
(1.1468948 2.9082772e-15 -0.16405985)
(1.1388359 -1.5717958e-14 -0.18122196)
(1.1284646 -2.3928165e-14 -0.19852147)
(1.1158103 -3.6741317e-15 -0.21592419)
(1.100607 -1.4493009e-21 -0.23325833)
(1.0825233 -4.1687754e-15 -0.25019041)
(1.0611765 8.8248118e-15 -0.26636843)
(1.0360818 -2.3227512e-14 -0.28122875)
(1.0068603 3.8856437e-14 -0.29385517)
(0.97334471 0 -0.3030726)
(0.93568898 -5.1824564e-15 -0.30742346)
(0.89460638 2.639585e-14 -0.3052326)
(0.85162664 2.1277798e-14 -0.29487511)
(0.80912176 -2.119143e-14 -0.27529355)
(0.76989166 5.215351e-15 -0.24650581)
(0.73647012 1.5248979e-14 -0.20983075)
(0.71030006 0 -0.16754477)
(0.69127235 0 -0.12143452)
(0.67884886 0 -0.074749559)
(0.67172384 -1.2105527e-15 -0.023454402)
(1.1499923 -8.6588786e-15 -0.022205142)
(1.153355 1.3643622e-16 -0.033531441)
(1.1561166 -9.5083184e-15 -0.045718104)
(1.1580831 5.7305924e-16 -0.058364411)
(1.1592563 8.2197167e-15 -0.07162997)
(1.1594995 1.0825667e-14 -0.085458117)
(1.1587126 0 -0.099879945)
(1.156763 -1.1352547e-14 -0.11488236)
(1.1535085 1.2914208e-15 -0.13047709)
(1.1487394 2.6889376e-15 -0.14657105)
(1.1420841 8.7079167e-15 -0.16298701)
(1.1333414 -8.8851464e-22 -0.1796056)
(1.1225443 2.7058724e-14 -0.19636655)
(1.1094777 3.6104552e-15 -0.21312614)
(1.0938189 2.6870354e-14 -0.22962946)
(1.0752784 1.6249557e-14 -0.24552128)
(1.0535256 0 -0.26039095)
(1.0281854 1.7914251e-14 -0.27360428)
(0.99902466 -2.3273991e-14 -0.28422406)
(0.96606016 4.3195789e-14 -0.2910969)
(0.92967724 -3.4338135e-14 -0.29287131)
(0.89082192 -2.4830234e-14 -0.28812351)
(0.85114144 1.9900388e-14 -0.27565437)
(0.8128701 3.4515944e-14 -0.25492962)
(0.77836958 4.8369708e-15 -0.22639888)
(0.74952904 0 -0.19152714)
(0.72719984 1.8229595e-14 -0.15237116)
(0.71096041 0 -0.11025016)
(0.70025794 7.6114579e-15 -0.06796478)
(0.69387991 2.2314457e-15 -0.021251826)
(1.1486191 8.1506517e-15 -0.022817784)
(1.1517761 -8.3552946e-15 -0.034108387)
(1.1542779 8.034036e-15 -0.046215614)
(1.1559806 5.4919372e-16 -0.058773803)
(1.1568567 -9.0094681e-15 -0.071929044)
(1.1567757 -8.0810935e-15 -0.085621785)
(1.1556296 -1.1831072e-15 -0.099874795)
(1.1532818 8.4852311e-15 -0.11467037)
(1.1495839 1.2516848e-15 -0.12998714)
(1.1442335 -1.0709397e-14 -0.14569494)
(1.1369776 1.160804e-14 -0.16163918)
(1.127859 9.3443831e-15 -0.17778229)
(1.116688 -9.975225e-15 -0.19398094)
(1.1032034 3.5368229e-15 -0.21002633)
(1.0871306 -1.8726266e-14 -0.22563755)
(1.0682196 -1.5781762e-14 -0.24043313)
(1.0461927 0 -0.25394613)
(1.0207855 -3.8736634e-14 -0.26549436)
(0.99191038 4.4484511e-15 -0.27414653)
(0.95975685 3.8227462e-21 -0.27880652)
(0.92490233 -3.4204017e-21 -0.2782694)
(0.88844714 -4.1995588e-14 -0.2713856)
(0.85205175 -3.2561876e-14 -0.25735075)
(0.81773201 -3.6736826e-14 -0.23604752)
(0.78740909 0 -0.20820267)
(0.76243358 4.364042e-15 -0.1752882)
(0.74323424 -6.3391965e-15 -0.13909795)
(0.72921242 2.0460785e-15 -0.10055114)
(0.71986806 -8.0650751e-15 -0.062090204)
(0.71409027 0 -0.019355668)
(1.1469643 0 -0.023404555)
(1.1499134 8.0614481e-15 -0.034646678)
(1.1521559 -5.170431e-16 -0.046661961)
(1.1535935 5.3044276e-16 -0.059118142)
(1.154172 -1.0882566e-15 -0.072146017)
(1.1537667 1.1160485e-15 -0.085683049)
(1.1522585 9.153516e-15 -0.099742265)
(1.1495061 0 -0.11429675)
(1.1453569 0 -0.12929507)
(1.1394733 1.8714278e-14 -0.14458594)
(1.1318726 -8.6082969e-15 -0.16010775)
(1.122411 0 -0.17575513)
(1.1108598 -3.2602876e-15 -0.19133255)
(1.0969936 6.9094309e-15 -0.20661274)
(1.0805761 -3.6424726e-15 -0.22128661)
(1.0613918 -3.8196028e-15 -0.23494279)
(1.0392269 -1.0176802e-21 -0.24707083)
(1.0139298 3.7125922e-14 -0.25696538)
(0.98555141 0 -0.26372577)
(0.95443371 -3.4601209e-14 -0.26634276)
(0.92130056 9.6198564e-14 -0.2637847)
(0.88733277 4.3811792e-14 -0.25517757)
(0.85412356 0 -0.2400618)
(0.82342751 2.9959766e-14 -0.21863197)
(0.79675654 3.7607549e-14 -0.19176717)
(0.775031 3.2443098e-14 -0.1608586)
(0.75839019 -2.7489797e-14 -0.12743299)
(0.74614967 -1.9018262e-14 -0.09208131)
(0.73789261 7.4942591e-15 -0.056961998)
(0.73260633 0 -0.017709391)
(1.1450647 -2.3842808e-16 -0.023962437)
(1.1478045 2.4468735e-16 -0.035143164)
(1.1497893 0 -0.047053786)
(1.1509625 -1.0310755e-15 -0.059393819)
(1.1512464 1.0579394e-15 -0.07227739)
(1.150523 0 -0.085639433)
(1.1486658 -1.0013877e-14 -0.099482183)
(1.1455336 1.1467591e-15 -0.11376397)
(1.1409273 -2.4624195e-15 -0.12840822)
(1.1346945 1.5866509e-14 -0.14331304)
(1.1267814 -2.8244673e-15 -0.15839594)
(1.1169705 0 -0.17349813)
(1.10507 -3.1878204e-15 -0.18841209)
(1.0908785 3.3641365e-15 -0.20288733)
(1.0741921 -2.4722892e-14 -0.21658606)
(1.0548379 -3.6871843e-15 -0.22907253)
(1.032674 -7.6527657e-15 -0.23980833)
(1.0076588 -2.3665293e-14 -0.24808757)
(0.97996901 -8.0705751e-15 -0.25306214)
(0.95007266 4.0953324e-14 -0.25383268)
(0.91879254 -5.7695894e-14 -0.24955397)
(0.88732591 3.2894693e-14 -0.23961181)
(0.85714272 -8.1354987e-15 -0.22383168)
(0.82972361 -3.1939837e-14 -0.20262466)
(0.80622115 -2.7243185e-14 -0.17692837)
(0.78722464 -3.3973485e-14 -0.14800439)
(0.77268414 1.4623207e-14 -0.11713017)
(0.7618884 1.4167727e-14 -0.084635166)
(0.75451307 -9.7934518e-22 -0.052451666)
(0.74963599 0 -0.016269024)
(1.1429531 -7.2149505e-15 -0.024488531)
(1.1454835 -7.4063777e-15 -0.035594879)
(1.1472143 -7.8492643e-15 -0.047388097)
(1.1481263 6.5454592e-15 -0.059597831)
(1.1481214 -6.1996013e-15 -0.072320517)
(1.1470894 -2.1196369e-15 -0.085488395)
(1.1449019 -1.0868966e-15 -0.099090382)
(1.1414246 4.5369354e-15 -0.11307763)
(1.1364372 -2.4379103e-15 -0.12736675)
(1.1299181 -1.8231061e-14 -0.14187764)
(1.1216828 1.6641875e-14 -0.15648277)
(1.1115492 -3.4093935e-22 -0.17100367)
(1.0993441 -4.3677458e-22 -0.18521974)
(1.084888 3.2665275e-15 -0.1988556)
(1.0680136 2.7321902e-14 -0.21155077)
(1.0485972 0 -0.22285285)
(1.0265723 -2.9342561e-14 -0.23221078)
(1.002 3.7635222e-14 -0.2389384)
(0.97516558 -3.8329401e-14 -0.24225837)
(0.9466338 3.0982541e-14 -0.24139633)
(0.91728087 3.1049064e-14 -0.23569429)
(0.88826921 7.0454931e-22 -0.22477011)
(0.8609118 -3.8057566e-14 -0.20867229)
(0.83642429 7.4551561e-15 -0.18794786)
(0.81565723 -2.9034939e-14 -0.16352722)
(0.79895347 0 -0.13652126)
(0.78614652 2.7267714e-14 -0.10798642)
(0.77653452 -1.1561482e-14 -0.078048651)
(0.7698833 -8.9446972e-15 -0.048458)
(0.76535229 8.2578818e-16 -0.015000077)
(1.1406599 -2.3202701e-22 -0.024980304)
(1.1429827 1.498991e-14 -0.035999281)
(1.1444658 7.6946513e-15 -0.047662431)
(1.1451228 -2.3689898e-14 -0.059727671)
(1.1448378 7.088721e-15 -0.072273253)
(1.1435083 2.076903e-15 -0.085229406)
(1.1410065 -1.0648809e-15 -0.098572204)
(1.1372064 0 -0.11224267)
(1.1319333 0 -0.126175)
(1.1251248 2.0472784e-14 -0.14026685)
(1.1165878 -1.9015466e-14 -0.15436081)
(1.1061685 -2.8713831e-15 -0.16827074)
(1.0937072 -6.0427017e-15 -0.1817581)
(1.0790513 -1.0839089e-21 -0.19452728)
(1.0620745 6.5886231e-15 -0.20620172)
(1.0427056 0 -0.21632068)
(1.0209523 2.8068437e-14 -0.22433538)
(0.99696842 -2.8677994e-14 -0.22959677)
(0.97112818 2.9084677e-14 -0.23141198)
(0.94406207 -2.9269845e-14 -0.22913881)
(0.91665973 -7.3063658e-15 -0.22229716)
(0.89001103 -2.172193e-14 -0.21070221)
(0.86525691 5.6996219e-14 -0.19456676)
(0.84337079 0 -0.17450973)
(0.82495818 1.9141768e-21 -0.15141196)
(0.81018424 0 -0.12623065)
(0.79881681 -2.5456268e-14 -0.099832822)
(0.79018438 1.2338767e-14 -0.072189074)
(0.78413488 0 -0.044900072)
(0.77990079 0 -0.013875097)
(1.1382135 1.4356076e-14 -0.025435643)
(1.1403321 -7.3690313e-15 -0.036354301)
(1.1415755 -1.5127967e-14 -0.047874951)
(1.1419864 1.5521369e-14 -0.059781694)
(1.1414342 0 -0.072134473)
(1.1398252 1.6317258e-14 -0.084861969)
(1.1370361 0 -0.097930194)
(1.1329464 1.7740437e-14 -0.1112745)
(1.1274109 -1.8895169e-14 -0.12483034)
(1.1203221 -2.0065277e-14 -0.13847247)
(1.1115151 2.6532083e-15 -0.15202842)
(1.100849 -2.7946077e-15 -0.16530017)
(1.0881837 0 -0.17803332)
(1.0733975 0 -0.18991714)
(1.0564063 -6.3410438e-15 -0.2005656)
(1.0371928 6.5389511e-15 -0.20951847)
(1.0158352 6.7001919e-15 -0.21624312)
(0.99256663 1.3637068e-14 -0.2201415)
(0.9678293 -2.7554681e-14 -0.22061389)
(0.94229017 -2.0722689e-14 -0.21715015)
(0.91681912 6.6722559e-22 -0.20943134)
(0.89240887 2.0383973e-14 -0.19743247)
(0.8700274 -2.0015955e-14 -0.18147889)
(0.85043601 -2.6060417e-14 -0.16221333)
(0.83404737 4.4333177e-14 -0.14044274)
(0.82090255 -1.8413808e-14 -0.1169786)
(0.81073836 -2.3791695e-14 -0.092529135)
(0.80292457 2.5953277e-14 -0.066948575)
(0.79738079 -2.8382328e-15 -0.041712621)
(0.7934049 0 -0.012872019)
(1.1356387 -7.0724745e-15 -0.025852725)
(1.1375575 -1.4519078e-14 -0.036658159)
(1.1385704 2.9797209e-14 -0.04802417)
(1.1387454 9.5502655e-16 -0.059758796)
(1.1379401 1.4685474e-14 -0.071904185)
(1.1360703 -1.6047942e-14 -0.084387614)
(1.1330174 -1.6440716e-14 -0.097165409)
(1.1286614 -1.9627287e-14 -0.11016837)
(1.1228725 3.9372614e-14 -0.12332493)
(1.1155262 0 -0.13649167)
(1.1064821 2.0677966e-14 -0.14948543)
(1.0956117 -2.1705729e-14 -0.16209558)
(1.0827987 -2.2676928e-14 -0.17405565)
(1.0679541 2.3569771e-14 -0.18504463)
(1.0510367 1.8270943e-14 -0.19467389)
(1.0320821 6.2570486e-15 -0.20249264)
(1.0112323 0 -0.20799639)
(0.98878522 -2.5905106e-14 -0.21064828)
(0.96522971 5.8679456e-14 -0.20994551)
(0.94124301 -3.2583462e-14 -0.20550378)
(0.91764997 -2.5869786e-14 -0.1971439)
(0.89533284 -2.550881e-14 -0.18496405)
(0.87509576 0 -0.16935889)
(0.85752044 2.4390042e-14 -0.15096113)
(0.84287176 -4.7393051e-14 -0.13049256)
(0.83110738 2.8704079e-14 -0.10863262)
(0.82195578 4.1731859e-14 -0.085958419)
(0.81483275 -2.6982555e-14 -0.06223873)
(0.80971866 1.3275721e-14 -0.038842482)
(0.80597002 0 -0.011972919)
(1.1329571 1.3954767e-14 -0.026229765)
(1.1346803 1.4767821e-14 -0.03690905)
(1.1354714 4.5902297e-16 -0.048108421)
(1.1354198 -2.0273658e-25 -0.059657348)
(1.134374 -1.639237e-14 -0.071580892)
(1.1322584 0 -0.083804774)
(1.128959 1.6170547e-14 -0.096275749)
(1.124355 0 -0.10891924)
(1.1183293 1.0741046e-21 -0.12165459)
(1.1107528 -4.7809768e-15 -0.13432348)
(1.1015068 -2.0096238e-14 -0.14673383)
(1.0904781 3.1537966e-14 -0.15866403)
(1.0775766 -5.4729302e-15 -0.16983926)
(1.0627464 -2.267515e-14 -0.17993337)
(1.045989 -4.0870757e-14 -0.188562)
(1.0273895 -1.1954868e-14 -0.19529217)
(1.0071455 3.0402867e-14 -0.1996572)
(0.98560422 4.301015e-14 -0.20118788)
(0.96328096 6.165987e-15 -0.19947756)
(0.94084126 2.4580372e-14 -0.194257)
(0.91904744 -2.4333892e-14 -0.18546318)
(0.89866717 -5.9866333e-15 -0.17328388)
(0.88035584 5.8599083e-15 -0.15814894)
(0.86454739 0 -0.1406588)
(0.85139624 2.2182814e-14 -0.12144773)
(0.84080663 -2.1494998e-14 -0.10107908)
(0.83251311 -1.8233105e-14 -0.080022871)
(0.82597842 -5.0533089e-15 -0.05798656)
(0.82123321 -7.4572479e-15 -0.036245983)
(0.81768685 0 -0.01116311)
(1.1301857 -1.3560343e-14 -0.026564755)
(1.1317171 -6.624365e-16 -0.037104831)
(1.132294 -1.4035937e-14 -0.048125471)
(1.1320237 0 -0.059474873)
(1.1307477 0 -0.071161905)
(1.1283986 0 -0.083110386)
(1.1248676 0 -0.095257935)
(1.1200347 0 -0.10752393)
(1.1137949 -3.5367246e-14 -0.11981769)
(1.106018 0 -0.13196888)
(1.0966083 1.9486984e-14 -0.14377844)
(1.0854701 -1.5242026e-14 -0.15501588)
(1.0725403 1.5818494e-14 -0.16540195)
(1.0577966 0 -0.1746106)
(1.0412812 5.5880562e-15 -0.18226828)
(1.0231241 -5.7019052e-15 -0.1879671)
(1.003568 -2.3125574e-14 -0.19128541)
(0.98299483 -4.6590046e-14 -0.19182446)
(0.96192819 -2.3309498e-14 -0.18926925)
(0.94100468 4.0548369e-14 -0.18345179)
(0.92091355 2.8610003e-14 -0.17440159)
(0.90231059 0 -0.16236692)
(0.88572066 -1.6486363e-14 -0.14778713)
(0.87145889 -5.3512185e-15 -0.13121726)
(0.85959924 0 -0.11320725)
(0.85001412 2.0134401e-14 -0.094220586)
(0.84245279 4.8805198e-15 -0.074640334)
(0.83642375 -4.7348979e-15 -0.054131412)
(0.8319984 0 -0.033886963)
(0.82863392 0 -0.010430454)
(1.1273384 -1.402486e-14 -0.026855356)
(1.1286814 -1.3510873e-14 -0.037242971)
(1.1290506 1.4291412e-14 -0.048072571)
(1.1285687 1.8293207e-15 -0.059208332)
(1.1270719 3.2646619e-23 -0.070644066)
(1.1245008 -1.7223392e-14 -0.082301374)
(1.1207523 1.5645171e-14 -0.094109412)
(1.1157111 0 -0.10598111)
(1.1092837 3.0125824e-14 -0.11781473)
(1.1013389 2.2568775e-14 -0.12943113)
(1.0918059 -4.2426781e-14 -0.14062686)
(1.0806086 2.4505575e-14 -0.15116461)
(1.067711 0 -0.16076477)
(1.0531237 -5.2183345e-15 -0.16910649)
(1.0369263 2.6700315e-14 -0.17583289)
(1.0192875 1.6295754e-14 -0.18056716)
(1.0004853 -1.6472942e-14 -0.18293722)
(0.98092135 1.1030743e-14 -0.1826145)
(0.96111278 -1.1008632e-14 -0.17936827)
(0.94165473 -2.183548e-14 -0.17311638)
(0.92315876 -3.2291657e-14 -0.16395864)
(0.90617604 1.0558548e-14 -0.15217984)
(0.89111994 6.1868371e-14 -0.13821052)
(0.87821206 -5.0170935e-15 -0.12255392)
(0.86746927 4.869071e-15 -0.10568201)
(0.85874735 4.7176696e-15 -0.087973611)
(0.85181508 3.5639232e-22 -0.069741509)
(0.8462244 1.3316438e-14 -0.050622553)
(0.84207906 0 -0.031735268)
(0.83887963 0 -0.0097648486)
(1.1244267 2.6424627e-14 -0.02709896)
(1.1255844 2.7088222e-14 -0.037320743)
(1.1257526 -1.40916e-14 -0.047946836)
(1.1250663 9.0133199e-16 -0.058854719)
(1.1233588 1.4746818e-14 -0.070024423)
(1.1205781 1.5064978e-14 -0.081375099)
(1.1166267 -1.5379324e-14 -0.092828431)
(1.1113984 -3.9838844e-15 -0.10429096)
(1.1048104 -3.3444351e-14 -0.11564836)
(1.0967333 -1.3115119e-14 -0.12671579)
(1.0871189 1.8210162e-14 -0.13728935)
(1.0759136 0 -0.14712658)
(1.0631077 0 -0.15595156)
(1.0487427 4.9946814e-15 -0.16345335)
(1.0329317 -5.0960405e-15 -0.16929679)
(1.0158754 1.0710274e-21 -0.17314048)
(0.99787617 3.1261072e-14 -0.17466409)
(0.97934321 -4.0843226e-22 -0.17360628)
(0.96077478 3.1180563e-14 -0.16981122)
(0.94271667 2.0572901e-14 -0.16326694)
(0.9257028 2.0248537e-14 -0.15412376)
(0.91018973 3.9672821e-14 -0.14268402)
(0.89649771 -1.7441842e-21 -0.12935728)
(0.884776 -3.764678e-14 -0.11459315)
(0.87500219 -3.6526376e-14 -0.098793604)
(0.86702595 0 -0.082266428)
(0.86063775 0 -0.065267691)
(0.85543025 -2.0814689e-15 -0.047417288)
(0.8515323 -5.1160561e-15 -0.029765592)
(0.84848388 -3.0770672e-15 -0.0091578222)
(1.1214601 -1.2824426e-14 -0.02729284)
(1.1224361 -2.7554541e-14 -0.037335455)
(1.1224105 0 -0.047745586)
(1.1215285 -1.5977101e-14 -0.058411522)
(1.1196221 -2.7210953e-14 -0.06930089)
(1.1166467 1.4814346e-14 -0.080330467)
(1.1125095 -3.7766976e-15 -0.09141558)
(1.107118 1.9381965e-14 -0.10245567)
(1.1003887 -9.3363675e-22 -0.11332159)
(1.0922191 0 -0.12383098)
(1.0825654 1.7553756e-14 -0.13377853)
(1.0714031 -1.3608419e-14 -0.1429207)
(1.0587459 -4.6657773e-15 -0.15098832)
(1.0446643 0 -0.15768482)
(1.0292997 -9.7141724e-15 -0.16270063)
(1.0128775 -1.9651518e-14 -0.16573255)
(0.99571465 -5.927476e-14 -0.1665119)
(0.97821695 9.8732336e-15 -0.16483967)
(0.96085498 -1.9617823e-14 -0.16062451)
(0.94412109 -2.9069788e-14 -0.1539096)
(0.92847497 -9.5227793e-15 -0.14487889)
(0.91428998 -7.4546161e-14 -0.13383799)
(0.90180996 -7.2676299e-14 -0.12116808)
(0.89112916 4.415458e-14 -0.10726638)
(0.88219921 5.9962405e-14 -0.092473257)
(0.87487059 0 -0.077037329)
(0.86895607 -1.6098534e-14 -0.061168924)
(0.86408613 -1.3301847e-21 -0.044479467)
(0.86040867 9.5970515e-15 -0.027956562)
(0.85749947 1.4392644e-22 -0.0086022314)
(1.1184462 -1.2637699e-14 -0.027434256)
(1.1192451 2.6307857e-14 -0.037284557)
(1.1190334 1.5379729e-14 -0.047466466)
(1.1179653 2.4454249e-14 -0.057876875)
(1.1158733 1.6053586e-14 -0.068472447)
(1.1127196 7.381009e-22 -0.079167722)
(1.1084162 0 -0.089871712)
(1.1028855 8.3318266e-22 -0.10047671)
(1.0960325 1.5685452e-14 -0.11083866)
(1.0878121 0 -0.12078746)
(1.0781622 -2.1114733e-14 -0.13010916)
(1.0670924 3.9179781e-14 -0.13856802)
(1.054638 -1.7862383e-14 -0.14590263)
(1.0408948 0 -0.15183499)
(1.0260274 0 -0.15608379)
(1.0102785 4.6653508e-14 -0.15838527)
(0.99397086 -9.3589659e-15 -0.15852047)
(0.9774979 -4.6664375e-14 -0.15634639)
(0.96129656 -2.7762062e-14 -0.15182546)
(0.94580486 -3.6506387e-14 -0.14504233)
(0.931414 -3.5828374e-14 -0.13620072)
(0.91842586 1.2093667e-21 -0.12559929)
(0.90702264 2.5590271e-14 -0.11358699)
(0.89725736 1.6576502e-14 -0.10051181)
(0.88906534 -1.3836178e-21 -0.086660624)
(0.88230235 -3.8933786e-14 -0.072233051)
(0.87680291 1.5105976e-14 -0.057402484)
(0.87223247 -1.4658762e-14 -0.04177828)
(0.86875319 0 -0.026290023)
(0.86597323 1.7996259e-15 -0.0080920251)
(1.1153918 2.6085203e-14 -0.02752052)
(1.1160187 -1.3560513e-14 -0.037165655)
(1.1156291 -1.3445819e-14 -0.047107315)
(1.114385 -1.5452748e-14 -0.057249079)
(1.1121206 1.752185e-15 -0.067537893)
(1.1088045 7.2344845e-22 -0.077885896)