/*--------------------------------*- C++ -*----------------------------------*\
| =========                 |                                                 |
| \\      /  F ield         | OpenFOAM: The Open Source CFD Toolbox           |
|  \\    /   O peration     | Version:  v2006                                 |
|   \\  /    A nd           | Website:  www.openfoam.com                      |
|    \\/     M anipulation  |                                                 |
\*---------------------------------------------------------------------------*/
FoamFile
{
    version     2.0;
    format      ascii;
    class       volVectorField;
    location    "1100";
    object      U;
}
// * * * * * * * * * * * * * * * * * * * * * * * * * * * * * * * * * * * * * //

dimensions      [0 1 -1 0 0 0 0];


internalField   nonuniform List<vector> 
16000
(
(183.81847 -3.2459178e-17 -6.8022309)
(184.83124 -4.0915657e-18 -9.1366238)
(185.72698 8.2734179e-18 -11.444881)
(186.5023 -4.1784372e-18 -13.851443)
(187.16355 0 -16.396977)
(187.68663 4.0732972e-16 -19.064345)
(188.04796 2.735652e-16 -21.856076)
(188.25658 2.7539486e-16 -24.776085)
(188.32027 -2.7681947e-16 -27.831321)
(188.23054 -1.7396183e-17 -31.036125)
(187.96584 2.7986884e-16 -34.404114)
(187.48314 3.4760447e-17 -37.949446)
(186.75997 -1.7672548e-17 -41.69748)
(185.7725 -2.6711557e-16 -45.671922)
(184.47296 2.5088705e-16 -49.895467)
(182.82112 3.0582062e-16 -54.398454)
(180.77276 2.9072647e-16 -59.213431)
(178.23174 3.6598337e-17 -64.36289)
(175.01987 -1.0451468e-18 -69.895109)
(170.98236 -6.352398e-16 -75.843981)
(165.95029 -3.7949924e-17 -82.227527)
(159.63838 -3.0770449e-16 -89.016847)
(151.61504 7.8524557e-17 -96.041137)
(141.29154 -2.2161163e-16 -102.90333)
(127.94407 1.8835477e-16 -108.83814)
(110.3221 0 -112.04981)
(85.702602 2.2511614e-18 -110.02963)
(56.435435 1.4728103e-17 -97.971077)
(31.325665 -1.7715687e-16 -62.941582)
(17.699003 -1.4906642e-16 -23.271673)
(210.17593 0 3.7840164)
(211.38709 3.3295923e-18 2.020301)
(212.48642 -7.1863254e-21 0.061491125)
(213.47309 3.4012241e-18 -1.9834802)
(214.3401 -1.1301668e-20 -4.1071724)
(215.06241 -2.2972854e-16 -6.3198645)
(215.62679 -2.2497109e-16 -8.6312148)
(216.04301 -4.4038075e-16 -11.046991)
(216.31258 -2.8703948e-17 -13.576047)
(216.42699 -2.1737e-16 -16.234354)
(216.36214 -2.487898e-16 -19.027242)
(216.06743 2.5095789e-16 -21.956421)
(215.52471 0 -25.041153)
(214.70079 2.4151783e-16 -28.296044)
(213.53236 -2.446482e-16 -31.735526)
(211.94483 -2.8004537e-16 -35.387798)
(209.80868 -4.7411111e-16 -39.286891)
(206.93811 -3.2395906e-17 -43.481931)
(203.55099 2.9634113e-16 -48.048299)
(199.26499 5.7573366e-16 -52.995469)
(193.73228 -7.0026043e-17 -58.369458)
(186.5039 3.265144e-16 -64.18205)
(176.91038 3.8219371e-17 -70.31474)
(164.11424 -3.948974e-17 -76.4093)
(147.26318 3.1832376e-16 -81.724698)
(125.86075 4.5363531e-17 -84.251022)
(100.72112 -2.1747853e-16 -80.551894)
(73.603415 -4.4276535e-16 -68.994389)
(47.397286 1.5176771e-17 -48.737378)
(33.598674 1.6308312e-16 -17.13605)
(200.1684 5.2407119e-17 -5.3843454)
(200.88016 1.0624223e-16 -7.7447335)
(201.58878 0 -10.167907)
(202.16208 -6.800943e-18 -12.711832)
(202.63669 -2.1359215e-16 -15.362488)
(202.97127 0 -18.108714)
(203.15356 0 -20.961331)
(203.19181 1.3943209e-17 -23.929386)
(203.07018 -1.430709e-17 -27.014144)
(202.76736 2.307175e-16 -30.226226)
(202.26501 2.325396e-16 -33.552639)
(201.51778 0 -37.009379)
(200.48562 -2.9538259e-17 -40.621442)
(199.13943 2.9742665e-17 -44.394405)
(197.44504 2.4068046e-16 -48.343771)
(195.40003 2.7266826e-16 -52.489137)
(192.93136 -3.12685e-17 -56.855355)
(189.83304 0 -61.464446)
(185.95691 0 -66.277207)
(181.13989 -2.5596474e-16 -71.225685)
(175.11768 -2.6300094e-16 -76.246466)
(167.50577 -2.3486071e-16 -81.149352)
(157.79043 -3.4550369e-17 -85.535337)
(145.39668 -2.927246e-16 -88.732589)
(129.89106 -3.0563346e-16 -90.036603)
(111.17308 -3.253078e-16 -86.89655)
(90.652237 0 -78.842627)
(70.901264 1.7848021e-16 -63.53812)
(55.529138 0 -41.023075)
(47.53075 -5.7706021e-17 -13.734503)
(205.5133 -9.594758e-17 2.1140398)
(206.58104 -9.7260405e-17 0.29085891)
(207.5156 0 -1.6772778)
(208.32333 0 -3.7271068)
(208.97437 -1.7319965e-19 -5.8787184)
(209.47824 -1.2807954e-17 -8.1328459)
(209.8483 1.2969468e-17 -10.503861)
(210.08792 -1.3344617e-17 -13.006036)
(210.1944 2.650067e-17 -15.63695)
(210.11651 -1.3388012e-17 -18.395811)
(209.59795 0 -21.294933)
(208.99589 0 -24.369464)
(208.07947 -2.7680968e-17 -27.619465)
(206.85992 -1.9587897e-16 -31.071411)
(205.26701 -4.52541e-16 -34.74305)
(203.2428 0 -38.657703)
(200.68774 4.3577136e-16 -42.845303)
(197.43362 2.9517107e-17 -47.341108)
(193.29677 2.1123851e-16 -52.121638)
(188.07071 -2.796743e-19 -57.161237)
(181.44846 3.1492494e-16 -62.402331)
(173.01518 -3.2377725e-17 -67.658272)
(162.27584 3.0467954e-16 -72.50889)
(148.79247 -3.7755024e-17 -76.163146)
(132.48314 0 -77.519948)
(113.91831 -4.125126e-17 -74.678124)
(94.888775 -2.5197737e-16 -66.577725)
(77.588025 1.3680296e-16 -52.582672)
(64.834847 1.6096875e-16 -33.5999)
(58.97193 0 -11.031362)
(202.04962 9.2220893e-17 -4.121363)
(202.90248 9.361906e-17 -6.417704)
(203.6332 8.9059796e-17 -8.7910844)
(204.23137 6.019524e-18 -11.265196)
(204.65832 1.949339e-16 -13.836813)
(204.97679 1.9748668e-16 -16.499896)
(205.13765 -1.2468022e-17 -19.254565)
(205.16047 2.2692129e-16 -22.11033)
(204.98776 -2.5470135e-17 -25.044087)
(204.60028 2.5701541e-17 -28.05885)
(203.97586 1.2980606e-17 -31.200488)
(203.15022 2.0968679e-16 -34.466617)
(202.04599 -2.6381708e-17 -37.845187)
(200.62572 2.1303226e-16 -41.363678)
(198.83067 -4.9901566e-19 -45.025047)
(196.59729 -2.7219488e-17 -48.838338)
(193.82114 -2.1982306e-16 -52.81483)
(190.34343 -1.9571364e-16 -56.950704)
(185.99559 -2.2626849e-16 -61.177008)
(180.57848 2.9016669e-17 -65.412331)
(173.80882 -2.9362192e-17 -69.521112)
(165.32846 0 -73.229048)
(154.75146 1.9613435e-18 -76.061084)
(141.83122 2.9119282e-16 -77.312621)
(126.7626 -3.3071326e-17 -75.737368)
(110.53515 3.0711778e-16 -70.04451)
(94.860063 -3.4657608e-17 -60.224448)
(81.727576 -1.5322003e-16 -45.855715)
(72.770376 1.6378547e-17 -28.501609)
(68.726958 3.7323193e-17 -9.1619199)
(203.62779 -4.315423e-17 0.69443496)
(204.60133 -8.4912602e-17 -1.1883539)
(205.44245 -9.1775367e-17 -3.2104848)
(206.15733 1.8633736e-16 -5.325867)
(206.7324 1.7750546e-16 -7.5592377)
(207.1396 -3.7121795e-16 -9.9054508)
(207.37146 -1.1749213e-17 -12.371422)
(207.448 1.1901196e-17 -14.973085)
(207.29289 -1.9261971e-16 -17.694998)
(206.96793 1.9467577e-16 -20.547128)
(206.3956 1.9680821e-16 -23.574491)
(205.54793 -1.9854862e-16 -26.768065)
(204.39645 2.5146629e-17 -30.129588)
(202.89231 -2.5361102e-17 -33.681668)
(200.97222 4.1044868e-16 -37.430145)
(198.56143 1.8192745e-16 -41.383704)
(195.54151 2.3694587e-16 -45.550082)
(191.74681 2.1293655e-16 -49.915098)
(187.00022 0 -54.405908)
(181.09263 2.2176597e-16 -58.917493)
(173.75145 -2.2671571e-16 -63.261836)
(164.67151 -2.3247299e-16 -67.087472)
(153.59859 -2.3687481e-16 -69.804457)
(140.52999 -3.0929455e-17 -70.544401)
(125.99969 -2.1897307e-16 -68.357724)
(111.21533 2.5033974e-16 -62.501857)
(97.702627 2.3103727e-16 -52.692146)
(87.048745 1.3548671e-16 -39.424227)
(80.127923 -6.4003354e-19 -24.289042)
(77.093168 -6.4194936e-17 -7.7123787)
(202.18378 -8.222457e-17 -3.2075776)
(203.03694 -8.616152e-17 -5.4203681)
(203.76189 8.223087e-17 -7.7118433)
(204.35719 -1.6673647e-16 -10.094803)
(204.80869 1.5404762e-19 -12.572084)
(205.07339 3.5401648e-16 -15.134621)
(205.19454 0 -17.783346)
(205.1518 1.8150711e-16 -20.523861)
(204.88694 -2.2974753e-19 -23.332215)
(204.44134 -1.6199051e-16 -26.230543)
(203.75855 -2.1039592e-16 -29.252163)
(202.80167 2.3636488e-17 -32.380928)
(201.5388 4.963285e-20 -35.619653)
(199.91831 6.7209227e-20 -38.98495)
(197.87587 -2.1867129e-16 -42.476525)
(195.33144 -1.9643826e-16 -46.096284)
(192.16287 -1.7378243e-16 -49.838392)
(188.21039 2.0239101e-16 -53.664435)
(183.30277 -2.5667848e-16 -57.48187)
(177.23867 -1.8213361e-16 -61.159399)
(169.77542 2.1219592e-16 -64.47409)
(160.67668 1.8940627e-16 -67.051524)
(149.82086 2.7556562e-17 -68.322829)
(137.40912 -2.2751107e-16 -67.523455)
(124.18606 2.8605145e-16 -63.863408)
(111.36481 -2.8295344e-16 -56.930173)
(100.22252 0 -46.917095)
(91.889879 0 -34.472217)
(86.683926 -1.065451e-16 -21.056962)
(84.379612 1.8222383e-19 -6.6091417)
(202.60888 7.7494799e-17 -0.37329911)
(203.50719 7.8796412e-17 -2.3188475)
(204.26976 -8.5095695e-17 -4.3973549)
(204.90012 5.0907601e-18 -6.5738597)
(205.38313 -1.6510252e-16 -8.8680237)
(205.68696 -1.6747662e-16 -11.278143)
(205.80253 1.6995982e-16 -13.811703)
(205.82372 -1.7190837e-16 -16.46189)
(205.46253 1.9574862e-16 -19.222493)
(205.00399 -2.201246e-17 -22.126319)
(204.25696 0 -25.180074)
(203.22214 0 -28.380962)
(201.85299 -2.0476638e-16 -31.727698)
(200.0961 2.2986132e-16 -35.229503)
(197.88274 1.6271077e-16 -38.879537)
(195.12586 0 -42.669818)
(191.69882 2.3788869e-16 -46.578276)
(187.44571 -2.3989374e-16 -50.543324)
(182.20211 1.9469623e-16 -54.446487)
(175.78364 0 -58.114689)
(167.99403 5.08909e-17 -61.270298)
(158.68993 -5.0989556e-17 -63.486118)
(147.90332 0 -64.174877)
(136.02017 4.4877746e-16 -62.659677)
(123.88912 -4.2175321e-16 -58.390815)
(112.65431 -2.5645308e-17 -51.241197)
(103.36843 1.7538749e-16 -41.600934)
(96.696773 2.1704467e-16 -30.235476)
(92.630222 5.966583e-18 -18.418757)
(90.798277 4.3773684e-17 -5.7286715)
(201.84564 2.297854e-18 -2.6495423)
(202.67397 -2.3425201e-18 -4.7858426)
(203.36691 1.5712932e-16 -7.0071829)
(203.92503 -4.8384404e-18 -9.3166413)
(204.33362 1.4735961e-16 -11.718522)
(204.55668 1.5948111e-16 -14.209791)
(204.62943 -1.6149685e-16 -16.793249)
(204.48494 -1.7397433e-16 -19.442872)
(204.15198 1.8639836e-16 -22.179566)
(203.5957 0 -25.024553)
(202.77629 2.1172286e-17 -27.973404)
(201.65815 -4.2757694e-17 -31.029801)
(200.19929 3.6710666e-16 -34.192636)
(198.34173 -1.7429158e-16 -37.468345)
(196.0145 -3.5255343e-16 -40.847981)
(193.12562 0 -44.318702)
(189.54796 -1.7983111e-16 -47.847479)
(185.13263 0 -51.357935)
(179.72585 0 -54.718296)
(173.16605 1.8807242e-16 -57.735667)
(165.30847 0 -60.113361)
(156.1022 4.8747384e-17 -61.424195)
(145.71384 -9.766855e-17 -61.126217)
(134.66043 -1.9629244e-16 -58.668092)
(123.81506 6.5379879e-16 -53.713888)
(114.1755 -2.3644762e-16 -46.367274)
(106.52573 -1.8294873e-16 -37.147935)
(101.19705 -1.4290532e-16 -26.764796)
(97.997567 -1.6135758e-17 -16.283147)
(96.506195 -1.6947037e-17 -5.0211243)
(201.83408 -2.1749159e-18 -1.1248814)
(202.6712 2.2183016e-18 -3.1124155)
(203.36653 -2.8858197e-16 -5.2240801)
(203.92235 1.4674617e-16 -7.4332757)
(204.31826 -1.4892848e-16 -9.7557215)
(204.50821 1.8032608e-19 -12.195198)
(204.57734 -1.9186685e-17 -14.74425)
(204.38063 1.7485716e-16 -17.384111)
(203.98289 -1.5736477e-16 -20.146999)
(203.36364 0 -23.034)
(202.46233 1.6132478e-16 -26.045799)
(201.24595 0 -29.179342)
(199.66778 -1.6439931e-16 -32.429185)
(197.66802 0 -35.791514)
(195.1733 1.255806e-16 -39.247619)
(192.08895 4.2315688e-17 -42.770669)
(188.29086 -4.306187e-17 -46.307732)
(183.6412 2.6064929e-16 -49.758888)
(178.00413 -2.1967378e-16 -52.967327)
(171.2524 -1.7725648e-16 -55.709856)
(163.30495 0 -57.665608)
(154.20922 -1.8206041e-16 -58.410942)
(144.24981 0 -57.466149)
(134.02334 3.638308e-16 -54.424678)
(124.36565 -1.7843703e-16 -49.148272)
(116.10338 1.5155866e-16 -41.901805)
(109.77204 -1.4571953e-16 -33.25752)
(105.45379 1.0021991e-17 -23.830559)
(102.87777 6.854106e-17 -14.508318)
(101.62652 0 -4.438941)
(201.29939 0 -2.3787693)
(202.09248 0 -4.4580921)
(202.74295 1.4559376e-16 -6.6285989)
(203.25286 -2.962251e-16 -8.8857198)
(203.60452 -1.3286993e-16 -11.236908)
(203.76846 -2.8774449e-16 -13.686469)
(203.73419 1.8244422e-17 -16.214507)
(203.51166 -1.6651521e-16 -18.814613)
(203.07357 1.8732298e-17 -21.518244)
(202.38422 1.327913e-16 -24.319675)
(201.41126 -3.0665663e-16 -27.220078)
(200.11294 3.8795308e-17 -30.218825)
(198.44144 1.1767206e-16 -33.310436)
(196.33446 3.962357e-17 -36.488123)
(193.71669 -1.9976913e-16 -39.73)
(190.49214 0 -43.002002)
(186.54172 0 -46.239152)
(181.74048 -1.6428497e-16 -49.327771)
(175.97373 -7.7183437e-19 -52.097283)
(169.1528 0 -54.309894)
(161.26176 0 -55.641634)
(152.43759 1.6997611e-16 -55.696563)
(143.05328 0 -54.075808)
(133.73453 -2.1024497e-16 -50.512824)
(125.23473 4.0856043e-17 -45.025646)
(118.20037 -1.3910216e-16 -37.975123)
(112.9581 1.3408319e-16 -29.923144)
(109.42919 0 -21.359242)
(107.32449 -8.1190301e-17 -13.02326)
(106.2515 9.3006187e-18 -3.954729)
(201.07993 0 -1.6394315)
(201.85741 -3.9898598e-18 -3.643971)
(202.48801 4.0695872e-18 -5.7642329)
(202.97374 1.4056994e-16 -7.9793169)
(203.29435 1.3449474e-16 -10.301906)
(203.42256 1.281156e-16 -12.734869)
(203.34828 0 -15.260644)
(203.07454 1.2302851e-16 -17.875968)
(202.57425 -1.4530665e-20 -20.601571)
(201.81183 -1.2617404e-16 -23.432216)
(200.75305 3.6256987e-17 -26.365557)
(199.35504 -1.8464292e-16 -29.394377)
(197.56783 -2.6091723e-16 -32.507548)
(195.32831 -3.7586034e-17 -35.688714)
(192.56072 -4.7290398e-19 -38.906176)
(189.17087 -3.852089e-17 -42.112114)
(185.04864 7.7506564e-17 -45.224371)
(180.08625 -1.956024e-16 -48.111885)
(174.19617 3.1543382e-16 -50.588399)
(167.33441 0 -52.404954)
(159.55126 -4.0254055e-17 -53.244835)
(151.06169 1.9977726e-16 -52.75564)
(142.29603 1.5902344e-16 -50.632149)
(133.86735 -1.5614501e-16 -46.740407)
(126.42093 3.8259046e-17 -41.218477)
(120.43353 1.1037826e-16 -34.474836)
(116.06764 0 -27.028459)
(113.14601 0 -19.248555)
(111.39531 0 -11.76225)
(110.45543 -8.5330529e-18 -3.546263)
(200.65023 -1.2101411e-16 -2.3069054)
(201.39513 1.8982801e-18 -4.3455509)
(201.99051 -1.3143068e-16 -6.4799638)
(202.43826 7.8691517e-18 -8.701119)
(202.71704 1.1205464e-16 -11.017224)
(202.80169 1.4640978e-16 -13.428123)
(202.68213 0 -15.917907)
(202.35631 -1.507564e-16 -18.48657)
(201.79618 1.6955586e-17 -21.150614)
(200.96664 3.4378504e-17 -23.904832)
(199.83168 1.041449e-16 -26.747006)
(198.34709 -3.1242416e-19 -29.669122)
(196.46117 2.8393834e-16 -32.658167)
(194.11022 3.5932019e-17 -35.69313)
(191.21879 2.5327457e-16 -38.736549)
(187.69634 1.4620662e-16 -41.730893)
(183.44381 0 -44.581636)
(178.37298 1.4805669e-16 -47.145899)
(172.42643 -1.8664225e-16 -49.228355)
(165.6064 3.3814814e-16 -50.578513)
(158.02447 -2.6338163e-16 -50.898955)
(149.9563 -1.8668655e-16 -49.891258)
(141.85872 1.4861747e-16 -47.343295)
(134.30083 2.5385285e-16 -43.23157)
(127.81007 3.4996907e-17 -37.773073)
(122.71509 0 -31.383198)
(119.05894 1.298715e-16 -24.517586)
(116.61236 0 -17.436578)
(115.13413 5.3508707e-17 -10.681958)
(114.29662 1.5785119e-17 -3.1983219)
(200.33076 1.1303082e-16 -1.9992955)
(201.0513 -1.1534777e-16 -4.0012086)
(201.61847 1.1008833e-16 -6.1120669)
(202.03386 7.4805084e-18 -8.3144175)
(202.27451 -1.2162074e-16 -10.61843)
(202.31725 -1.0817943e-16 -13.021587)
(202.15132 -1.5707692e-17 -15.509366)
(201.77021 1.1142971e-16 -18.081465)
(201.14517 1.6145004e-17 -20.748276)
(200.24145 -1.3097226e-16 -23.502569)
(199.0218 1.3253667e-16 -26.337917)
(197.44124 1.0017092e-16 -29.241401)
(195.44733 -1.0129666e-16 -32.194109)
(192.97699 3.4223379e-17 -35.166927)
(189.95697 -1.7182717e-16 -38.113425)
(186.30319 -1.3859329e-16 -40.964269)
(181.93072 0 -43.612362)
(176.77389 -3.1748285e-16 -45.904784)
(170.80832 3.5167543e-17 -47.641624)
(164.08228 1.1297576e-18 -48.579505)
(156.7608 -1.0099145e-18 -48.451536)
(149.16095 -3.1641176e-16 -47.021811)
(141.73878 -2.4186233e-16 -44.167924)
(134.99875 -2.6982588e-16 -39.955264)
(129.35237 0 -34.647415)
(125.00627 3.1509432e-17 -28.641416)
(121.92158 -4.5567997e-17 -22.324621)
(119.84739 1.4467007e-17 -15.86697)
(118.5804 -5.702108e-17 -9.7471072)
(117.82273 0 -2.8990062)
(199.92094 0 -2.3561336)
(200.61148 1.0953847e-16 -4.3630115)
(201.14538 -6.9778551e-18 -6.4676087)
(201.52423 7.114182e-18 -8.6582547)
(201.72416 -1.4469723e-17 -10.942475)
(201.72367 1.4719696e-17 -13.316285)
(201.51103 1.196857e-16 -15.767245)
(201.0759 0 -18.295905)
(200.38894 0 -20.909043)
(199.41543 2.1803483e-16 -23.599324)
(198.11705 -9.4472605e-17 -26.358809)
(196.44827 0 -29.172179)
(194.35642 -3.2268861e-17 -32.016739)
(191.7798 6.4997384e-17 -34.857486)
(188.64871 -3.2667224e-17 -37.640726)
(184.88765 -3.3146062e-17 -40.287374)
(180.42784 -3.0381041e-19 -42.680669)
(175.22795 2.9968378e-16 -44.661435)
(169.29747 0 -46.030463)
(162.72755 -2.6699584e-16 -46.55876)
(155.72591 7.3150756e-16 -46.0168)
(148.63159 3.2801718e-16 -44.232201)
(141.87819 0 -41.160753)
(135.89508 2.1963456e-16 -36.931839)
(130.98811 2.728452e-16 -31.827832)
(127.26869 2.3317071e-16 -26.210994)
(124.64615 -1.9609816e-16 -20.402105)
(122.86725 -1.3463148e-16 -14.498469)
(121.76663 5.2823334e-17 -8.9316368)
(121.07257 0 -2.6394408)
(199.54508 -3.1886896e-18 -2.2666186)
(200.20694 3.2585001e-18 -4.2525371)
(200.70851 0 -6.342093)
(201.05108 -1.3524329e-17 -8.519375)
(201.20984 1.3776973e-17 -10.79172)
(201.16479 0 -13.153187)
(200.90299 -1.2802128e-16 -15.592223)
(200.41093 1.444252e-17 -18.108039)
(199.6589 -2.9324758e-17 -20.702698)
(198.61231 1.7842972e-16 -23.36656)
(197.23224 -2.9997502e-17 -26.087902)
(195.47321 0 -28.847042)
(193.28331 -3.0739564e-17 -31.615723)
(190.6034 3.0858374e-17 -34.351972)
(187.36917 -2.1848839e-16 -36.99423)
(183.51589 -3.126914e-17 -39.454379)
(178.99285 -6.3404187e-17 -41.608349)
(173.78435 -1.9058453e-16 -43.29469)
(167.93309 -6.3701525e-17 -44.320828)
(161.56786 3.1541627e-16 -44.479556)
(154.92671 -4.3669909e-16 -43.584315)
(148.35283 2.4741082e-16 -41.52475)
(142.24174 -5.9931842e-17 -38.321988)
(136.94519 -2.3429667e-16 -34.147817)
(132.67785 -1.979681e-16 -29.283802)
(129.48027 -2.4477134e-16 -24.050011)
(127.23219 1.0460322e-16 -18.707366)
(125.68916 1.0082256e-16 -13.296925)
(124.72096 -1.975747e-19 -8.2147965)
(124.07839 0 -2.4126509)
(199.12603 -9.4123171e-17 -2.4701167)
(199.75757 -9.6061853e-17 -4.4475257)
(200.22521 -1.0114167e-16 -6.5223474)
(200.53035 8.3751128e-17 -8.6811687)
(200.64752 -7.8727324e-17 -10.929517)
(200.55793 -2.6679156e-17 -13.260602)
(200.24727 -1.3567673e-17 -15.664256)
(199.69935 5.5049143e-17 -18.13905)
(198.88421 -2.7891568e-17 -20.684008)
(197.76731 -1.9764831e-16 -23.288282)
(196.30951 1.7190731e-16 -25.937517)
(194.46582 -1.1048799e-19 -28.608649)
(192.18584 -1.3848796e-19 -31.268694)
(189.4141 2.9374233e-17 -33.869613)
(186.09319 2.3691559e-16 -36.342908)
(182.17088 0 -38.593123)
(177.61578 -2.3993278e-16 -40.491557)
(172.43794 2.9976444e-16 -41.878153)
(166.711 -2.9932446e-16 -42.571734)
(160.59437 2.3891618e-16 -42.391641)
(154.34385 2.3543293e-16 -41.195702)
(148.29183 2.5817117e-19 -38.929532)
(142.78639 -2.8212079e-16 -35.664533)
(138.10512 5.4420511e-17 -31.595803)
(134.38772 -2.1074349e-16 -26.990415)
(131.62454 0 -22.124179)
(129.68147 1.9467918e-16 -17.206428)
(128.32873 -8.2102067e-17 -12.235592)
(127.46725 -6.3515092e-17 -7.5804175)
(126.86713 5.87705e-18 -2.213191)
(198.71046 -9.2718644e-20 -2.4813117)
(199.311 1.8857463e-16 -4.4421391)
(199.744 9.6137974e-17 -6.5020601)
(200.01081 -2.9421091e-16 -8.6454093)
(200.08538 8.7312991e-17 -10.876655)
(199.94996 2.5408777e-17 -13.187665)
(199.58884 -1.2908972e-17 -15.568615)
(198.98375 0 -18.016177)
(198.10465 0 -20.525729)
(196.91724 2.1574991e-16 -23.084045)
(195.38262 -1.9054146e-16 -25.67321)
(193.45697 -2.7505916e-17 -28.266061)
(191.09234 -5.578118e-17 -30.824495)
(188.23806 -3.3536787e-19 -33.294567)
(184.84517 5.6257365e-17 -35.601601)
(180.87536 0 -37.644754)
(176.31717 2.2697005e-16 -39.293806)
(171.20557 -2.2759464e-16 -40.394227)
(165.64147 2.2599445e-16 -40.780991)
(159.80683 -2.2356391e-16 -40.303718)
(153.9633 -5.5248453e-17 -38.864053)
(148.42107 -1.6275377e-16 -36.455886)
(143.47659 4.2214685e-16 -33.186746)
(139.34056 0 -29.260254)
(136.09345 4.1486516e-19 -24.92099)
(133.69192 0 -20.402304)
(131.99851 -1.8268523e-16 -15.870581)
(130.80063 8.8177434e-17 -11.292651)
(130.02611 0 -7.0155176)
(129.46157 0 -2.0367084)
(198.27 1.7578691e-16 -2.6126044)
(198.83897 -8.9693202e-17 -4.5585664)
(199.23666 -1.8326681e-16 -6.5997847)
(199.46472 1.8661262e-16 -8.7213448)
(199.49667 0 -10.926214)
(199.31553 1.937532e-16 -13.205643)
(198.90422 0 -15.550308)
(198.24284 2.0004354e-16 -17.955371)
(197.30144 -2.0292692e-16 -20.413429)
(196.0461 -2.0517659e-16 -22.909245)
(194.43864 2.6028705e-17 -25.421762)
(192.43701 -2.6202946e-17 -27.920072)
(189.99655 0 -30.361382)
(187.07253 0 -32.686516)
(183.62567 -5.3895664e-17 -34.81572)
(179.6325 5.3670831e-17 -36.644745)
(175.1014 5.4200175e-17 -38.044652)
(170.09043 1.0726762e-16 -38.869813)
(164.72301 -2.1473123e-16 -38.974657)
(159.19527 -1.5871811e-16 -38.240443)
(153.76438 2.4604001e-19 -36.609385)
(148.71065 1.5236051e-16 -34.114424)
(144.27899 -1.4861623e-16 -30.886248)
(140.62244 -1.9125517e-16 -27.125944)
(137.77644 3.2280965e-16 -23.05161)
(135.67664 -1.3299133e-16 -18.857922)
(134.18883 -1.70618e-16 -14.676259)
(133.11818 1.8542164e-16 -10.450481)
(132.4153 -2.023249e-17 -6.509669)
(131.88108 0 -1.8797065)
(197.82131 -8.3618387e-17 -2.6648495)
(198.35775 -1.709835e-16 -4.5935835)
(198.71928 3.4883649e-16 -6.6169075)
(198.90782 1.1115061e-17 -8.7185336)
(198.89651 1.7002504e-16 -10.900125)
(198.66902 -1.8432815e-16 -13.151994)
(198.20704 -1.8771465e-16 -15.464587)
(197.4895 -2.1414277e-16 -17.830963)
(196.4867 4.1057893e-16 -20.240744)
(195.16542 0 -22.676188)
(193.4887 1.9827672e-16 -25.112858)
(191.41691 -2.0032771e-16 -27.516037)
(188.90958 -2.0208484e-16 -29.83853)
(185.92887 2.0349617e-16 -32.016685)
(182.44623 1.5324311e-16 -33.967071)
(178.45343 5.0985865e-17 -35.584332)
(173.97789 0 -36.743777)
(169.09806 -2.0406926e-16 -37.311878)
(163.9544 4.5505415e-16 -37.165001)
(158.74916 -2.4922685e-16 -36.215938)
(153.72677 -1.9565452e-16 -34.442824)
(149.13335 -1.9105413e-16 -31.908422)
(145.16532 0 -28.755817)
(141.92786 1.7956306e-16 -25.176107)
(139.42353 -3.459088e-16 -21.359938)
(137.57616 2.083378e-16 -17.468052)
(136.25868 3.0069231e-16 -13.603757)
(135.29348 -1.9393736e-16 -9.6946056)
(134.65027 9.4905444e-17 -6.054369)
(134.14229 0 -1.7393389)
(197.35457 1.5941679e-16 -2.7617971)
(197.85813 1.6773915e-16 -4.6718777)
(198.18308 5.3969528e-18 -6.6735095)
(198.33191 -3.5676613e-21 -8.7502831)
(198.27744 -1.8335351e-16 -10.902504)
(198.00384 0 -13.119895)
(197.49173 1.7861308e-16 -15.392614)
(196.71927 0 -17.711798)
(195.65723 3.6361596e-19 -20.064476)
(194.27339 -4.6725475e-17 -22.430501)
(192.53252 -1.8870505e-16 -24.782258)
(190.39804 2.8574043e-16 -27.081493)
(187.83447 -4.8429728e-17 -29.277113)
(184.81174 -1.9314999e-16 -31.301873)
(181.31263 -3.3963004e-16 -33.070101)
(177.34409 -9.7255504e-17 -34.477462)
(172.95108 2.4263386e-16 -35.406022)
(168.22908 3.3744146e-16 -35.736697)
(163.32989 4.7876908e-17 -35.368896)
(158.45464 1.8798667e-16 -34.245178)
(153.82903 -1.8429687e-16 -32.373861)
(149.66359 -4.5056196e-17 -29.838755)
(146.11119 4.340265e-17 -26.786801)
(143.23861 0 -23.394529)
(141.02533 1.6251033e-16 -19.826054)
(139.38992 -1.560759e-16 -16.213089)
(138.21447 -1.3199276e-16 -12.636666)
(137.33747 -3.6403511e-17 -9.013106)
(136.7445 -5.3727585e-17 -5.6426433)
(136.25957 0 -1.6132713)
(196.87547 -1.4930695e-16 -2.8264249)
(197.3454 -7.2672719e-18 -4.7166891)
(197.63319 -1.5325801e-16 -6.6964816)
(197.74196 0 -8.7483932)
(197.64422 0 -10.871426)
(197.3246 0 -13.054519)
(196.76285 0 -15.287102)
(195.93677 0 -17.558189)
(194.81783 -3.5116634e-16 -19.852217)
(193.37514 0 -22.146516)
(191.57571 1.8008708e-16 -24.410388)
(189.38665 -1.3631403e-16 -26.60233)
(186.77817 1.3715496e-16 -28.667979)
(183.72861 0 -30.537561)
(180.23237 4.5859444e-17 -32.124794)
(176.31092 -4.598955e-17 -33.328519)
(172.02479 -1.8381539e-16 -34.039822)
(167.48262 -3.6535395e-16 -34.155779)
(162.84197 -1.8035755e-16 -33.598914)
(158.29691 3.1048413e-16 -32.338727)
(154.05053 2.1671834e-16 -30.407677)
(150.27863 0 -27.902929)
(147.09635 -1.2261192e-16 -24.968988)
(144.54064 -3.9454848e-17 -21.765508)
(142.57556 0 -18.432133)
(141.11886 1.470964e-16 -15.076207)
(140.06262 3.54434e-17 -11.761207)
(139.26005 -3.4235049e-17 -8.3960759)
(138.7098 0 -5.268716)
(138.24543 0 -1.499572)
(196.38095 -1.4920063e-16 -2.9046141)
(196.81696 -1.4322737e-16 -4.7730196)
(197.06738 1.509844e-16 -6.7278805)
(197.13613 1.9242797e-17 -8.751294)
(196.99548 6.0707777e-21 -10.840996)
(196.63046 -1.7986404e-16 -12.985252)
(196.0202 1.6262357e-16 -15.172642)
(195.14249 0 -17.390156)
(193.96976 2.9289166e-16 -19.619841)
(192.47283 2.1205673e-16 -21.836585)
(190.62141 -3.858342e-16 -24.006856)
(188.3869 2.1599392e-16 -26.086303)
(185.74574 0 -28.017998)
(182.6851 -4.3940074e-17 -29.730737)
(179.21093 2.1902621e-16 -31.139185)
(175.3581 1.3151218e-16 -32.147236)
(171.20022 -1.3122791e-16 -32.656719)
(166.85511 8.6556021e-17 -32.581734)
(162.481 -8.4931975e-17 -31.866931)
(158.26029 -1.6727539e-16 -30.505132)
(154.3716 -2.4556707e-16 -28.546989)
(150.95836 7.9242236e-17 -26.096611)
(148.10409 4.6208739e-16 -23.291722)
(145.82321 -3.7272789e-17 -20.274409)
(144.07021 3.5807537e-17 -17.162457)
(142.76488 3.4592313e-17 -14.043015)
(141.80932 5.9535094e-20 -10.965783)
(141.07013 9.6685121e-17 -7.835238)
(140.5566 0 -4.9277715)
(140.1108 0 -1.396631)
(195.87299 2.7133118e-16 -2.9680805)
(196.27466 2.7729121e-16 -4.8133702)
(196.48748 -1.4374119e-16 -6.7421819)
(196.51631 9.1742315e-18 -8.7358085)
(196.33317 1.4972922e-16 -10.790746)
(195.92354 1.5222181e-16 -12.894467)
(195.26618 -1.5480262e-16 -15.03447)
(194.33921 -3.9390644e-17 -17.19572)
(193.11629 -3.1933797e-16 -19.357967)
(191.57028 -1.2111109e-16 -21.493757)
(189.67412 1.6320973e-16 -23.567012)
(187.40391 0 -25.531031)
(184.7428 0 -27.32714)
(181.68691 4.1804629e-17 -28.883891)
(178.25324 -4.1568436e-17 -30.118439)
(174.4886 3.5985282e-19 -30.941382)
(170.47693 2.4834898e-16 -31.266537)
(166.34126 -1.4048515e-19 -31.025167)
(162.23617 2.4162784e-16 -30.182302)
(158.32916 1.5813557e-16 -28.750104)
(154.77414 1.5420032e-16 -26.791979)
(151.68547 2.9949493e-16 -24.413933)
(149.12088 -4.0259114e-19 -21.744204)
(147.07831 -2.7999658e-16 -18.907718)
(145.50698 -2.6994275e-16 -16.003182)
(144.33046 0 -13.101162)
(143.46053 0 -10.240578)
(142.77577 -1.5546669e-17 -7.3236287)
(142.29411 -3.7247072e-17 -4.6157652)
(141.8653 -2.2594922e-17 -1.3030963)
(195.35092 -1.2720797e-16 -3.0326049)
(195.71812 -2.7278176e-16 -4.8527335)
(195.8934 0 -6.7529014)
(195.88269 -1.5756701e-16 -8.7138233)
(195.65784 -2.6753814e-16 -10.730791)
(195.20481 1.4542129e-16 -12.790493)
(194.50225 -3.6977596e-17 -14.879257)
(193.52892 1.8771253e-16 -16.980126)
(192.26002 -3.0637325e-19 -19.070723)
(190.67081 0 -21.121434)
(188.73782 1.5589543e-16 -23.093995)
(186.44226 -1.1784883e-16 -24.93991)
(183.77423 -3.9396513e-17 -26.599608)
(180.73869 0 -28.002548)
(177.36288 -7.9576075e-17 -29.069744)
(173.70373 -1.5797525e-16 -29.719791)
(169.85262 -4.7080548e-16 -29.879172)
(165.93419 7.720156e-17 -29.495758)
(162.09585 -1.5239936e-16 -28.552633)
(158.48833 -2.235997e-16 -27.077256)
(155.24175 -7.249444e-17 -25.141055)
(152.4452 -5.6495672e-16 -22.848172)
(150.13587 -5.4689243e-16 -20.315919)
(148.30009 3.3045392e-16 -17.653142)
(146.88485 4.4580203e-16 -14.942171)
(145.81851 0 -12.240044)
(145.02187 -1.1838421e-16 -9.5772476)
(144.38427 -2.9500704e-19 -6.8553572)
(143.93055 7.0517449e-17 -4.3292792)
(143.51744 3.0564091e-20 -1.217826)
(194.81566 -1.214638e-16 -3.0881438)
(195.14829 2.5215052e-16 -4.8815635)
(195.2862 1.4727171e-16 -6.7513705)
(195.23652 2.3363037e-16 -8.6776421)
(194.97095 1.53006e-16 -10.654485)
(194.47602 2.3597122e-19 -12.667738)
(193.73054 0 -14.702471)
(192.71424 2.7291946e-19 -16.739901)
(191.40408 1.4499708e-16 -18.755696)
(189.77808 0 -20.718319)
(187.81669 -1.8544336e-16 -22.587739)
(185.50651 3.3650211e-16 -24.314294)
(182.8446 -1.5057135e-16 -25.838398)
(179.84442 0 -27.091532)
(176.54232 0 -27.99977)
(173.00336 3.7526094e-16 -28.490634)
(169.32356 -7.4507252e-17 -28.503445)
(165.62593 -3.6731403e-16 -28.001581)
(162.04816 -2.1659405e-16 -26.983535)
(158.72346 -2.8199095e-16 -25.488231)
(155.75992 -2.7452878e-16 -23.591204)
(153.22518 2.8071678e-19 -21.39211)
(151.14051 1.9351277e-16 -18.99683)
(149.48441 1.2450827e-16 -16.499575)
(148.20373 -3.5726218e-19 -13.968788)
(147.23211 -2.8924705e-16 -11.450523)
(146.49862 1.1200443e-16 -8.9686688)
(145.90222 -1.0856795e-16 -6.4254122)
(145.47324 0 -4.0654072)
(145.0748 1.3386728e-17 -1.1398493)
(194.26744 2.4278065e-16 -3.1395683)
(194.56562 -1.259181e-16 -4.9042936)
(194.66657 -1.2471977e-16 -6.7413899)
(194.57875 -1.4319734e-16 -8.6304362)
(194.27374 1.6227796e-17 -10.564379)
(193.73879 2.268157e-19 -12.528196)
(192.95312 0 -14.505687)
(191.8977 -1.7058549e-16 -16.476385)
(190.55153 3.4560627e-17 -18.414208)
(188.89566 -1.4021006e-16 -20.285988)
(186.9147 1.4159108e-16 -22.050393)
(184.60078 -1.4234245e-16 -23.657239)
(181.95781 1.4302358e-16 -25.047785)
(179.00708 1.435637e-16 -26.156535)
(175.79278 1.4330386e-16 -26.915576)
(172.38601 7.1262462e-17 -27.261899)
(168.88474 2.8128406e-16 -27.147359)
(165.40776 6.2517286e-16 -26.549326)
(162.08132 -8.6000576e-20 -25.478935)
(159.02128 5.9986017e-16 -23.983121)
(156.31592 1.9478327e-16 -22.138439)
(154.01515 2.5173262e-16 -20.038373)
(152.12815 -6.0947117e-17 -17.77752)
(150.62844 5.8677741e-17 -15.437046)
(149.46422 -5.7193397e-17 -13.073724)
(148.57444 2.7358342e-16 -10.72471)
(147.89573 0 -8.4087324)
(147.33563 0 -6.0295086)
(146.92875 0 -3.8216649)
(146.54412 1.2603492e-17 -1.0683365)
(193.70698 -1.1396938e-16 -3.1832683)
(193.97097 0 -4.9175443)
(194.03556 1.1918156e-16 -6.7199311)
(193.91063 0 -8.5695606)
(193.56777 1.2400393e-16 -10.458239)
(192.99503 3.1783475e-17 -12.370065)
(192.17229 -6.4152526e-17 -14.287589)
(191.08204 3.2527699e-17 -16.188819)
(189.70553 3.3059137e-17 -18.046161)
(188.02708 -1.0050893e-16 -19.825155)
(186.03564 -6.7388064e-17 -21.483662)
(183.72882 0 -22.971642)
(181.11709 -6.8346034e-17 -24.232018)
(178.22874 -1.3669035e-16 -25.203183)
(175.11434 -1.3636573e-16 -25.823936)
(171.84897 -4.7319885e-16 -26.040916)