/*--------------------------------*- C++ -*----------------------------------*\
| =========                 |                                                 |
| \\      /  F ield         | OpenFOAM: The Open Source CFD Toolbox           |
|  \\    /   O peration     | Version:  v1906                                 |
|   \\  /    A nd           | Web:      www.OpenFOAM.com                      |
|    \\/     M anipulation  |                                                 |
\*---------------------------------------------------------------------------*/
FoamFile
{
    version     2.0;
    format      ascii;
    class       volVectorField;
    location    "5000";
    object      U;
}
// * * * * * * * * * * * * * * * * * * * * * * * * * * * * * * * * * * * * * //

dimensions      [0 1 -1 0 0 0 0];


internalField   nonuniform List<vector> 
46500
(
(0.999998 1.59665e-05 1.58327e-22)
(0.999998 4.16352e-06 0)
(0.999998 -7.43553e-06 0)
(0.999999 -1.84456e-05 3.65377e-20)
(1 -2.85835e-05 -3.53354e-20)
(1 -3.763e-05 1.3243e-22)
(1 -4.54163e-05 -1.27082e-22)
(1.00001 -5.183e-05 -1.21841e-22)
(1.00001 -5.6815e-05 0)
(1.00001 -6.0366e-05 0)
(1.00001 -6.25211e-05 1.08228e-19)
(1.00001 -6.33521e-05 -1.05292e-19)
(1.00002 -6.29576e-05 0)
(1.00002 -6.14523e-05 0)
(1.00002 -5.89573e-05 0)
(1.00002 -5.55982e-05 -8.75614e-20)
(1.00002 -5.14956e-05 8.55357e-20)
(1.00002 -4.67632e-05 0)
(1.00002 -4.15065e-05 0)
(1.00001 -3.58203e-05 0)
(1.00001 -2.97931e-05 0)
(1.00001 -2.35001e-05 0)
(1.00001 -1.70467e-05 6.8244e-23)
(1.00001 -1.04299e-05 0)
(1 -3.51784e-06 0)
(0.999978 4.7839e-05 2.48812e-21)
(0.999978 1.41264e-05 -2.05685e-20)
(0.999979 -1.89691e-05 2.00004e-20)
(0.999981 -5.04656e-05 -3.01702e-22)
(0.999983 -7.9652e-05 2.90276e-22)
(0.999985 -0.000105945 -7.10218e-20)
(0.999988 -0.000128885 6.85319e-20)
(0.999991 -0.000148156 -6.50138e-20)
(0.999995 -0.000163584 6.32155e-20)
(0.999998 -0.000175124 1.19488e-19)
(1 -0.000182847 -1.7311e-21)
(1 -0.000186911 -1.11282e-19)
(1.00001 -0.000187549 0)
(1.00001 -0.000185044 0)
(1.00001 -0.000179702 0)
(1.00001 -0.000171846 -9.25415e-20)
(1.00001 -0.000161796 1.79382e-19)
(1.00001 -0.000149855 -8.70546e-20)
(1.00001 -0.00013631 -1.65647e-19)
(1.00002 -0.000121419 1.84079e-21)
(1.00002 -0.000105426 1.56484e-19)
(1.00002 -8.8535e-05 -1.50244e-19)
(1.00002 -7.09065e-05 1.46962e-19)
(1.00002 -5.33923e-05 1.42181e-19)
(1.00001 -3.16602e-05 -2.76272e-19)
(0.999937 7.8805e-05 -1.35422e-20)
(0.999937 2.5465e-05 1.02998e-20)
(0.999939 -2.69285e-05 -4.13741e-20)
(0.999942 -7.69644e-05 4.09085e-20)
(0.999947 -0.000123617 -3.88858e-20)
(0.999952 -0.000166007 3.73437e-20)
(0.999957 -0.000203432 -7.02779e-20)
(0.999964 -0.00023539 1.36614e-19)
(0.99997 -0.000261582 -6.61798e-20)
(0.999977 -0.000281896 1.25742e-19)
(0.999983 -0.000296385 -1.21738e-19)
(0.99999 -0.000305239 -1.14964e-19)
(0.999996 -0.000308762 1.11901e-19)
(1 -0.000307343 -1.06067e-19)
(1.00001 -0.000301407 1.02968e-19)
(1.00001 -0.000291422 -5.75239e-22)
(1.00002 -0.000277855 9.37822e-20)
(1.00002 -0.000261159 -9.13796e-20)
(1.00002 -0.00024177 0)
(1.00003 -0.000220082 0)
(1.00003 -0.000196457 0)
(1.00003 -0.000171274 0)
(1.00003 -0.000144363 0)
(1.00004 -0.000118347 0)
(1.00003 -8.27122e-05 -1.40231e-22)
(0.999877 0.000109119 -1.79552e-22)
(0.999878 3.74988e-05 7.07759e-22)
(0.999881 -3.29117e-05 -1.02549e-21)
(0.999887 -0.00010037 4.09994e-20)
(0.999895 -0.000163582 -8.03343e-20)
(0.999905 -0.000221413 3.96844e-20)
(0.999916 -0.000272944 7.38429e-20)
(0.999928 -0.000317503 -7.16071e-20)
(0.999941 -0.000354667 0)
(0.999954 -0.000384242 -1.03189e-21)
(0.999967 -0.000406251 0)
(0.999979 -0.000420883 4.75729e-22)
(0.999991 -0.000428487 -1.14914e-19)
(1 -0.000429519 1.12804e-19)
(1.00001 -0.000424492 0)
(1.00002 -0.000413985 3.99771e-22)
(1.00003 -0.000398582 -3.86894e-22)
(1.00004 -0.000378857 -3.72098e-22)
(1.00004 -0.000355375 -3.58274e-22)
(1.00005 -0.000328654 -8.72703e-20)
(1.00005 -0.000299141 8.56656e-20)
(1.00006 -0.000267501 1.63536e-19)
(1.00006 -0.000232979 -1.60356e-19)
(1.00007 -0.00020042 -3.02868e-22)
(1.00006 -0.000153552 -2.92159e-22)
(0.9998 0.00013893 -1.89395e-22)
(0.999802 4.97917e-05 -2.37108e-20)
(0.999807 -3.7887e-05 2.43164e-20)
(0.999816 -0.000122087 -4.33065e-20)
(0.999829 -0.000201281 4.18813e-20)
(0.999844 -0.00027411 -1.27574e-21)
(0.999861 -0.000339466 -7.79788e-20)
(0.999881 -0.000396526 1.49807e-19)
(0.999901 -0.000444754 -8.92622e-22)
(0.999921 -0.000483884 -1.37773e-19)
(0.999942 -0.000513898 6.67644e-20)
(0.999961 -0.000534983 -9.93233e-22)
(0.99998 -0.000547512 -4.74006e-22)
(0.999998 -0.000551995 -1.16327e-19)
(1.00001 -0.000549012 2.2408e-19)
(1.00003 -0.000539229 -2.15102e-19)
(1.00004 -0.000523326 1.04927e-19)
(1.00006 -0.00050198 9.86196e-20)
(1.00007 -0.000475861 -9.59602e-20)
(1.00008 -0.000445609 -3.5902e-22)
(1.00008 -0.0004117 8.87708e-20)
(1.00009 -0.000375169 -8.64946e-20)
(1.0001 -0.000334592 -1.65632e-19)
(1.0001 -0.000296867 3.23108e-19)
(1.0001 -0.000240963 -1.55963e-19)
(0.999707 0.000168242 0)
(0.999709 6.21725e-05 -3.87032e-22)
(0.999717 -4.21969e-05 -7.46844e-22)
(0.99973 -0.000142608 7.27281e-22)
(0.999747 -0.000237327 4.43855e-20)
(0.999768 -0.000324803 -4.22985e-20)
(0.999792 -0.000403765 -8.18236e-20)
(0.999818 -0.000473258 7.9337e-20)
(0.999846 -0.000532643 0)
(0.999875 -0.000581586 -5.69993e-22)
(0.999904 -0.000620034 0)
(0.999932 -0.000648157 6.66546e-20)
(0.999959 -0.000666347 -6.38724e-20)
(0.999985 -0.000675154 4.76341e-22)
(1.00001 -0.000675206 0)
(1.00003 -0.000667242 4.42228e-22)
(1.00005 -0.000652019 -1.07818e-19)
(1.00007 -0.0006303 2.00084e-21)
(1.00009 -0.000602836 1.00853e-19)
(1.0001 -0.000570387 -9.57553e-20)
(1.00011 -0.000533418 5.07283e-22)
(1.00012 -0.000493329 9.03695e-20)
(1.00013 -0.00044809 3.39905e-22)
(1.00014 -0.000406305 0)
(1.00014 -0.000342926 -1.61467e-19)
(0.999599 0.000197045 8.39117e-21)
(0.999602 7.44963e-05 -3.26875e-20)
(0.999611 -4.61345e-05 2.52454e-20)
(0.999627 -0.000162373 -7.55813e-22)
(0.999649 -0.000272302 -4.66441e-20)
(0.999677 -0.000374199 1.06332e-21)
(0.999708 -0.000466647 4.34031e-20)
(0.999742 -0.000548571 -8.17887e-20)
(0.999779 -0.000619239 1.59e-19)
(0.999817 -0.000678249 -7.49376e-20)
(0.999855 -0.000725511 0)
(0.999892 -0.000761177 0)
(0.999929 -0.00078565 6.59808e-20)
(0.999963 -0.000799507 6.26767e-20)
(0.999996 -0.000803415 -1.24212e-19)
(1.00003 -0.000798175 -4.59655e-22)
(1.00005 -0.000784607 8.90155e-22)
(1.00008 -0.000763548 0)
(1.0001 -0.000735819 8.21864e-22)
(1.00012 -0.000702289 7.90887e-22)
(1.00014 -0.000663405 3.78643e-22)
(1.00016 -0.000620884 3.65512e-22)
(1.00017 -0.000572202 -3.53268e-22)
(1.00018 -0.000527394 -8.72018e-20)
(1.00018 -0.000457849 8.4454e-20)
(0.999475 0.000225365 0)
(0.999478 8.65928e-05 0)
(0.99949 -5.00616e-05 0)
(0.99951 -0.000181921 5.10604e-20)
(0.999537 -0.000306899 -9.84696e-20)
(0.999571 -0.000423118 4.67811e-20)
(0.99961 -0.000529023 -4.52172e-20)
(0.999653 -0.000623428 4.38485e-20)
(0.999698 -0.000705515 8.30606e-20)
(0.999746 -0.000774818 -8.19195e-20)
(0.999794 -0.000831209 0)
(0.999842 -0.000874823 0)
(0.999888 -0.000906068 -6.8725e-20)
(0.999933 -0.000925548 1.12633e-21)
(0.999975 -0.00093396 6.41733e-20)
(1.00001 -0.00093216 0)
(1.00005 -0.000921024 -1.18873e-19)
(1.00008 -0.000901457 1.15146e-19)
(1.00011 -0.000874338 -8.54197e-22)
(1.00014 -0.000840642 -1.05602e-19)
(1.00016 -0.000800801 2.03387e-19)
(1.00019 -0.000756801 -9.87384e-20)
(1.0002 -0.000705715 0)
(1.00022 -0.000658832 0)
(1.00022 -0.000584324 3.42549e-22)
(0.999335 0.000253235 1.8572e-21)
(0.999339 9.83161e-05 -1.35922e-20)
(0.999353 -5.42901e-05 1.31241e-20)
(0.999377 -0.00020171 0)
(0.99941 -0.000341702 0)
(0.99945 -0.000472238 4.96515e-20)
(0.999497 -0.000591642 -4.811e-20)
(0.999549 -0.000698619 0)
(0.999604 -0.00079227 0)
(0.999662 -0.000872073 0)
(0.999721 -0.000937866 -7.88414e-20)
(0.999779 -0.000989763 7.79243e-20)
(0.999836 -0.00102818 -2.31386e-21)
(0.999892 -0.00105375 0)
(0.999944 -0.00106719 -1.14482e-23)
(0.999994 -0.00106941 -1.3001e-19)
(1.00004 -0.00106133 2.49555e-19)
(1.00008 -0.00104394 -1.2076e-19)
(1.00012 -0.00101815 9.02418e-22)
(1.00015 -0.000985039 0)
(1.00019 -0.000945034 1.0475e-19)
(1.00021 -0.000900353 -1.03274e-19)
(1.00024 -0.000847724 0)
(1.00026 -0.000799559 0)
(1.00027 -0.00072113 0)
(0.99918 0.00028067 7.86156e-21)
(0.999185 0.000109558 -8.60273e-21)
(0.999202 -5.90494e-05 9.16554e-22)
(0.999229 -0.00022208 -3.01837e-20)
(0.999267 -0.000377145 2.91886e-20)
(0.999315 -0.000522079 5.23704e-20)
(0.999369 -0.000655084 -5.07465e-20)
(0.99943 -0.000774768 0)
(0.999496 -0.000880157 0)
(0.999564 -0.000970673 -8.81637e-20)
(0.999634 -0.00104612 2.67317e-23)
(0.999704 -0.00110661 8.20453e-20)
(0.999773 -0.00115254 1.20954e-21)
(0.999839 -0.00118459 0)
(0.999903 -0.00120349 7.18234e-20)
(0.999963 -0.00121022 -1.36697e-19)
(1.00002 -0.00120572 6.60828e-20)
(1.00007 -0.00119105 1.24525e-19)
(1.00012 -0.00116719 -1.22563e-19)
(1.00016 -0.00113528 0)
(1.0002 -0.00109576 1.74079e-21)
(1.00024 -0.00105105 0)
(1.00026 -0.000997589 1.01801e-19)
(1.0003 -0.000948784 -1.01232e-19)
(1.00031 -0.000867298 7.47657e-22)
(0.99901 0.000307678 5.23756e-22)
(0.999015 0.000120226 -1.61775e-20)
(0.999034 -6.45295e-05 4.67986e-20)
(0.999066 -0.000243314 -5.63643e-20)
(0.99911 -0.000413597 8.4856e-20)
(0.999164 -0.000573083 -5.58032e-20)
(0.999227 -0.000719856 -1.68114e-21)
(0.999298 -0.000852431 0)
(0.999373 -0.000969761 0)
(0.999453 -0.00107122 0)
(0.999534 -0.00115658 8.89008e-20)
(0.999616 -0.00122592 -1.47044e-21)
(0.999696 -0.00127969 -8.27359e-20)
(0.999775 -0.00131856 -1.23437e-21)
(0.99985 -0.0013433 1.18068e-21)
(0.999921 -0.00135492 -1.34492e-23)
(0.999989 -0.00135444 0)
(1.00005 -0.00134294 6.63881e-20)
(1.00011 -0.00132148 -6.38288e-20)
(1.00016 -0.00129127 0)
(1.00021 -0.00125276 1.1482e-19)
(1.00025 -0.00120856 -1.12311e-19)
(1.00029 -0.00115485 8.4168e-22)
(1.00033 -0.00110593 1.62934e-21)
(1.00034 -0.00102209 -7.76675e-22)
(0.998824 0.000334262 8.79729e-21)
(0.99883 0.000130231 -8.5578e-21)
(0.998851 -7.09075e-05 -2.08589e-21)
(0.998887 -0.000265672 3.70114e-23)
(0.998937 -0.000451397 0)
(0.998998 -0.000625656 -1.85437e-21)
(0.99907 -0.000786421 -3.1132e-23)
(0.99915 -0.000932114 -1.70347e-21)
(0.999236 -0.00106162 1.63039e-21)
(0.999327 -0.00117426 0)
(0.99942 -0.00126979 -9.37962e-20)
(0.999513 -0.00134827 1.59953e-21)
(0.999606 -0.00141015 1.58595e-21)
(0.999697 -0.00145614 2.83735e-21)
(0.999785 -0.00148702 7.85617e-20)
(0.999868 -0.00150387 1.17415e-21)
(0.999947 -0.00150775 -7.05335e-20)
(1.00002 -0.00149981 6.77979e-20)
(1.00009 -0.00148113 6.58088e-20)
(1.00015 -0.00145303 -6.43059e-20)
(1.00021 -0.00141597 9.60631e-22)
(1.00026 -0.0013727 -9.15126e-22)
(1.00031 -0.00131921 0)
(1.00035 -0.0012706 -8.4912e-22)
(1.00038 -0.00118496 0)
(0.998622 0.000360417 -9.29398e-21)
(0.998629 0.000139488 9.06573e-21)
(0.998652 -7.83493e-05 3.70974e-20)
(0.998692 -0.000289396 -3.79871e-20)
(0.998748 -0.000490854 0)
(0.998816 -0.000680169 -5.99653e-20)
(0.998897 -0.000855201 6.37121e-20)
(0.998986 -0.00101428 1.77034e-21)
(0.999084 -0.00115623 -1.69443e-21)
(0.999186 -0.00128031 0)
(0.999291 -0.00138627 1.57582e-21)
(0.999397 -0.00147414 0)
(0.999503 -0.0015444 9.03647e-20)
(0.999607 -0.00159778 -8.80093e-20)
(0.999707 -0.00163509 1.31156e-21)
(0.999803 -0.00165746 8.00924e-20)
(0.999894 -0.001666 -7.92996e-20)
(0.99998 -0.00166191 -7.10431e-20)
(1.00006 -0.00164634 7.04905e-20)
(1.00013 -0.00162066 -6.62844e-20)
(1.0002 -0.00158538 6.3801e-20)
(1.00026 -0.0015434 1.22212e-19)
(1.00031 -0.0014905 -2.95949e-21)
(1.00037 -0.00144254 -1.14173e-19)
(1.0004 -0.00135554 0)
(0.998403 0.000386133 1.24369e-21)
(0.998411 0.000147913 1.92228e-20)
(0.998437 -8.70092e-05 -1.8573e-20)
(0.998481 -0.000314706 3.55724e-20)
(0.998542 -0.000532251 -3.22976e-20)
(0.998619 -0.00073696 0)
(0.998708 -0.000926582 -1.95692e-21)
(0.998808 -0.00109936 0)
(0.998916 -0.00125404 0)
(0.99903 -0.00138986 -1.74606e-21)
(0.999147 -0.00150651 -1.6377e-21)
(0.999267 -0.00160405 0)
(0.999386 -0.00168295 9.54252e-20)
(0.999503 -0.00174397 -9.14869e-20)
(0.999616 -0.00178796 -1.36302e-21)
(0.999725 -0.0018161 -8.43876e-20)
(0.999829 -0.00182955 8.23052e-20)
(0.999927 -0.00182956 1.20737e-21)
(1.00002 -0.00181736 0)
(1.0001 -0.00179437 -1.10581e-21)
(1.00018 -0.00176114 -6.67805e-20)
(1.00025 -0.0017207 6.53125e-20)
(1.00032 -0.00166868 9.66541e-22)
(1.00038 -0.00162163 -1.8687e-21)
(1.00042 -0.00153362 8.93152e-22)
(0.998168 0.000411391 1.11487e-20)
(0.998176 0.000155422 -1.14993e-20)
(0.998205 -9.70353e-05 2.21486e-20)
(0.998254 -0.000341812 -1.66629e-20)
(0.998321 -0.000575853 -2.25543e-21)
(0.998405 -0.000796346 -3.47861e-20)
(0.998503 -0.00100093 3.37152e-20)
(0.998613 -0.00118775 0)
(0.998732 -0.0013555 -6.08402e-20)
(0.998858 -0.00150335 1.18995e-19)
(0.998989 -0.001631 -5.64588e-20)
(0.999121 -0.00173847 -5.45602e-20)
(0.999254 -0.00182627 -4.94074e-20)
(0.999384 -0.00189518 1.92958e-19)
(0.999511 -0.00194608 -1.95576e-21)
(0.999634 -0.00198022 -4.87503e-22)
(0.999751 -0.0019988 -8.55061e-20)
(0.999862 -0.00200313 -1.25463e-21)
(0.999966 -0.0019945 -1.21665e-21)
(1.00006 -0.0019744 1.14905e-21)
(1.00015 -0.00194344 -1.11438e-21)
(1.00024 -0.00190474 -6.62234e-20)
(1.00031 -0.00185384 6.58395e-20)
(1.00038 -0.00180789 9.74991e-22)
(1.00043 -0.0017191 8.10456e-24)
(0.997915 0.000436164 -1.37478e-21)
(0.997925 0.000161927 2.71502e-21)
(0.997956 -0.000108575 -5.23761e-21)
(0.998009 -0.000370917 2.55016e-21)
(0.998082 -0.000621917 0)
(0.998174 -0.000858634 -3.69398e-20)
(0.998281 -0.00107859 7.11535e-20)
(0.998401 -0.00127984 -3.42874e-20)
(0.998532 -0.00146101 -6.45273e-20)
(0.99867 -0.00162124 6.26788e-20)
(0.998814 -0.00176019 1.87284e-21)
(0.99896 -0.00187788 1.75125e-21)
(0.999106 -0.00197484 5.33674e-20)
(0.999251 -0.00205189 -5.19748e-20)
(0.999392 -0.00210993 0)
(0.999529 -0.00215027 2.46642e-23)
(0.99966 -0.00217416 0)
(0.999784 -0.002183 0)
(0.999901 -0.00217813 -1.85959e-23)
(1.00001 -0.00216109 0)
(1.00011 -0.00213256 2.33093e-21)
(1.00021 -0.00209576 -7.18201e-20)
(1.00029 -0.00204612 7.02594e-20)
(1.00037 -0.00200143 -6.61452e-20)
(1.00043 -0.00191203 6.63773e-23)
(0.997645 0.000460416 7.39243e-21)
(0.997655 0.000167335 -7.1968e-21)
(0.997689 -0.000121776 2.75188e-21)
(0.997747 -0.000402222 6.47091e-23)
(0.997826 -0.000670696 -4.09881e-20)
(0.997925 -0.000924122 7.89693e-20)
(0.998042 -0.0011599 -3.80617e-20)
(0.998173 -0.00137602 2.28827e-21)
(0.998315 -0.001571 0)
(0.998466 -0.00174396 -6.53356e-20)
(0.998623 -0.00189455 6.15623e-20)
(0.998783 -0.00202276 -5.93373e-20)
(0.998944 -0.00212914 5.59478e-20)
(0.999103 -0.00221457 -1.71901e-21)
(0.999259 -0.00227997 -1.0262e-19)
(0.99941 -0.00232671 7.13291e-22)
(0.999555 -0.00235611 9.54216e-20)
(0.999693 -0.00236961 8.90007e-20)
(0.999823 -0.00236864 -8.55825e-20)
(0.999945 -0.0023548 0)
(1.00006 -0.00232882 7.64651e-20)
(1.00017 -0.00229404 -1.59825e-21)
(1.00026 -0.00224579 -1.44041e-19)
(1.00036 -0.00220246 2.48862e-21)
(1.00042 -0.00211254 1.14337e-21)
(0.997356 0.000484103 -5.50023e-21)
(0.997367 0.000171547 6.14466e-21)
(0.997404 -0.000136791 -2.36524e-20)
(0.997466 -0.000435933 2.29541e-20)
(0.997552 -0.000722443 0)
(0.997659 -0.000993109 -2.66185e-21)
(0.997785 -0.00124522 -2.54761e-21)
(0.997927 -0.00147665 3.57796e-20)
(0.998081 -0.00168588 -3.70398e-20)
(0.998245 -0.00187196 -6.7182e-20)
(0.998416 -0.00203453 -7.63806e-22)
(0.99859 -0.00217357 6.43054e-20)
(0.998765 -0.00228967 -5.61414e-20)
(0.998939 -0.00238373 6.01528e-20)
(0.999109 -0.0024567 0)
(0.999275 -0.00251004 0)
(0.999435 -0.00254511 1.57384e-21)
(0.999587 -0.00256342 -9.55117e-20)
(0.999732 -0.00256648 9.03767e-20)
(0.999868 -0.00255595 -8.56468e-20)
(0.999994 -0.00253263 8.37172e-20)
(1.00011 -0.00249994 -1.24617e-21)
(1.00022 -0.00245317 7.38131e-20)
(1.00033 -0.00241126 -7.33955e-20)
(1.00041 -0.00232087 -1.08201e-21)
(0.997047 0.000507173 -8.28121e-22)
(0.99706 0.000174457 0)
(0.9971 -0.000153779 -3.2031e-21)
(0.997167 -0.000472257 -3.03105e-20)
(0.997259 -0.000777412 6.99292e-20)
(0.997375 -0.00106589 -4.50959e-20)
(0.99751 -0.00133487 2.64698e-21)
(0.997663 -0.00158212 -2.59313e-21)
(0.99783 -0.00180605 -2.47421e-21)
(0.998007 -0.00200567 -2.303e-21)
(0.998191 -0.00218061 2.19455e-21)
(0.99838 -0.00233081 2.13785e-21)
(0.99857 -0.00245692 -1.98985e-21)
(0.998759 -0.00255988 0)
(0.998945 -0.00264064 -1.84071e-21)
(0.999126 -0.00270077 1.75134e-21)
(0.9993 -0.00274168 5.22014e-20)
(0.999468 -0.00276494 -4.93613e-20)
(0.999626 -0.00277214 1.48599e-21)
(0.999776 -0.00276501 -1.44205e-21)
(0.999917 -0.00274442 8.49535e-20)
(1.00005 -0.00271389 -8.31256e-20)
(1.00017 -0.00266864 0)
(1.00029 -0.00262819 0)
(1.00038 -0.00253732 1.12356e-21)
(0.996719 0.000529562 0)
(0.996733 0.000175949 1.39554e-20)
(0.996776 -0.000172907 -6.753e-21)
(0.996848 -0.000511409 3.20157e-21)
(0.996947 -0.000835866 -4.63975e-20)
(0.997071 -0.00114278 3.52479e-21)
(0.997217 -0.0014292 9.13204e-20)
(0.997381 -0.0016928 -4.12829e-20)
(0.99756 -0.00193193 5.20719e-21)
(0.99775 -0.00214554 7.85234e-20)
(0.997949 -0.00233324 -1.51048e-19)
(0.998152 -0.00249497 7.04583e-20)
(0.998358 -0.0026314 -6.75663e-20)
(0.998562 -0.00274352 6.37447e-20)
(0.998764 -0.00283232 1.91257e-21)
(0.998961 -0.00289943 -3.67775e-21)
(0.999151 -0.00294634 -1.73189e-21)
(0.999333 -0.00297468 5.26004e-20)
(0.999507 -0.00298613 -1.51571e-19)
(0.999671 -0.00298248 9.93976e-20)
(0.999826 -0.00296469 1.42958e-21)
(0.999971 -0.00293635 0)
(1.0001 -0.00289264 0)
(1.00023 -0.00285367 -1.26793e-21)
(1.00034 -0.00276229 1.19758e-21)
(0.996371 0.000551198 -9.37463e-22)
(0.996385 0.000175899 1.89284e-21)
(0.996432 -0.000194349 2.51488e-20)
(0.996509 -0.000553615 -2.7777e-20)
(0.996615 -0.000898076 -3.2806e-21)
(0.996748 -0.00122409 3.23097e-21)
(0.996903 -0.00152857 0)
(0.997079 -0.0018091 4.31731e-20)
(0.997271 -0.00206395 -4.75148e-20)
(0.997475 -0.00229203 0)
(0.997688 -0.00249292 0)
(0.997907 -0.00266656 0)
(0.998128 -0.00281365 7.18429e-20)
(0.998349 -0.00293522 -7.00149e-20)
(0.998566 -0.00303229 6.69257e-20)
(0.998779 -0.00310659 -6.12941e-20)
(0.998985 -0.00315967 0)
(0.999183 -0.00319322 1.78281e-21)
(0.999372 -0.00320902 -5.3034e-20)
(0.999552 -0.00320892 2.91292e-21)
(0.999721 -0.00319397 5.09083e-20)
(0.99988 -0.00316785 0)
(1.00003 -0.00312569 0)
(1.00017 -0.0030882 8.51841e-20)
(1.00028 -0.00299622 -8.3628e-20)
(0.996 0.000571996 1.06558e-21)
(0.996016 0.000174169 -1.78813e-20)
(0.996066 -0.000218293 -1.52606e-20)
(0.996149 -0.000599109 2.96815e-20)
(0.996262 -0.000964323 -2.82453e-20)
(0.996403 -0.00131014 7.46104e-20)
(0.99657 -0.00163335 -5.24058e-20)
(0.996758 -0.00193142 3.06416e-21)
(0.996963 -0.00220255 3.0013e-21)
(0.997181 -0.0024456 -2.85662e-21)
(0.997409 -0.00266015 4.50973e-20)
(0.997643 -0.0028461 -3.86437e-20)
(0.997881 -0.00300419 0)
(0.998117 -0.00313552 2.27148e-21)
(0.998352 -0.00324112 -7.10796e-20)
(0.998581 -0.00332283 6.50969e-20)
(0.998803 -0.00338224 -1.99169e-21)
(0.999018 -0.00342114 5.72339e-20)
(0.999223 -0.00344139 -1.15682e-19)
(0.999418 -0.00344491 -2.581e-22)
(0.999601 -0.00343284 5.06645e-20)
(0.999776 -0.00340895 -9.55472e-20)
(0.999935 -0.00336833 9.49843e-20)
(1.00009 -0.00333231 8.84731e-20)
(1.00022 -0.00323963 -8.42286e-20)
(0.995608 0.000591861 1.15458e-21)
(0.995625 0.000170613 2.16451e-21)
(0.995679 -0.000244939 0)
(0.995767 -0.000648141 -3.14988e-20)
(0.995887 -0.0010349 3.43676e-20)
(0.996038 -0.00140128 3.61599e-20)
(0.996215 -0.00174391 2.36143e-20)
(0.996415 -0.00206017 -5.3509e-20)
(0.996634 -0.00234819 4.69204e-20)
(0.996867 -0.00260676 -4.56433e-20)
(0.99711 -0.00283544 -2.82208e-21)
(0.997361 -0.00303413 -2.68159e-21)
(0.997614 -0.00320361 -8.14476e-20)
(0.997868 -0.00334502 8.17959e-20)
(0.998119 -0.00345942 0)
(0.998366 -0.00354876 2.17894e-21)
(0.998605 -0.00361468 2.06912e-21)
(0.998836 -0.00365906 0)
(0.999057 -0.00368387 1.86825e-21)
(0.999268 -0.00369107 0)
(0.999468 -0.00368192 -5.56455e-20)
(0.999657 -0.00366027 5.11097e-20)
(0.99983 -0.00362117 4.89713e-20)
(1 -0.0035866 -4.64303e-20)
(1.00014 -0.00349308 1.40428e-21)
(0.995192 0.000610685 -3.4841e-21)
(0.995211 0.000165068 -4.564e-21)
(0.995268 -0.0002745 4.47042e-21)
(0.995362 -0.000700973 -4.30065e-21)
(0.99549 -0.00111013 -4.00429e-21)
(0.99565 -0.00149785 -3.83488e-21)
(0.995839 -0.00186066 3.66516e-21)
(0.996051 -0.00219581 -3.60026e-21)
(0.996284 -0.00250133 -3.42812e-21)
(0.996532 -0.002776 4.75517e-20)
(0.996791 -0.00301934 -5.24907e-20)
(0.997058 -0.00323122 -4.57804e-20)
(0.997329 -0.00341248 4.1768e-20)
(0.9976 -0.00356432 -2.57571e-21)
(0.997869 -0.00368782 0)
(0.998133 -0.00378502 0)
(0.998389 -0.00385765 0)
(0.998638 -0.00390766 -2.13705e-21)
(0.998876 -0.00393713 6.325e-20)
(0.999103 -0.00394807 -6.3712e-20)
(0.999318 -0.00394187 1.79206e-21)
(0.999523 -0.00392247 0)
(0.999712 -0.00388486 0)
(0.999897 -0.00385171 -1.55034e-21)
(1.00005 -0.00375722 -2.94132e-21)
(0.994752 0.000628347 2.49962e-21)
(0.994773 0.000157359 2.40512e-21)
(0.994834 -0.000307204 1.4141e-20)
(0.994933 -0.000757886 2.23619e-20)
(0.99507 -0.00119032 -3.05459e-20)
(0.99524 -0.00160025 0)
(0.99544 -0.00198401 -4.04217e-21)
(0.995665 -0.00233878 3.73986e-21)
(0.995912 -0.00266249 6.43989e-20)
(0.996176 -0.00295386 -1.0995e-19)
(0.996452 -0.0032124 5.60112e-20)
(0.996736 -0.00343796 3.1406e-21)
(0.997024 -0.00363144 2.89644e-21)
(0.997313 -0.00379407 4.38993e-20)
(0.9976 -0.00392696 -1.28637e-19)
(0.997881 -0.00403228 8.10985e-20)
(0.998156 -0.00411183 0)
(0.998422 -0.00416761 4.4941e-21)
(0.998677 -0.00420185 0)
(0.998922 -0.00421661 2.00028e-21)
(0.999153 -0.00421341 6.06039e-20)
(0.999374 -0.00419625 -5.92517e-20)
(0.999578 -0.0041601 0)
(0.999779 -0.00412834 0)
(0.999949 -0.0040327 3.10868e-21)
(0.994286 0.000644713 4.0323e-21)
(0.994309 0.000147295 5.2114e-21)
(0.994374 -0.000343298 1.00091e-20)
(0.99448 -0.000819177 -1.94966e-20)
(0.994625 -0.00127584 -9.32991e-21)
(0.994805 -0.00170885 -4.53553e-21)
(0.995017 -0.00211441 -1.32749e-22)
(0.995256 -0.00248956 4.12803e-21)
(0.995518 -0.00283218 -3.81028e-21)
(0.995797 -0.00314089 3.62189e-21)
(0.99609 -0.00341523 5.51037e-20)
(0.996392 -0.00365498 -1.09095e-19)
(0.996698 -0.00386111 5.08333e-20)
(0.997005 -0.00403493 0)
(0.997311 -0.00417754 2.7767e-21)
(0.997611 -0.00429126 -8.40101e-20)
(0.997904 -0.00437793 7.93845e-20)
(0.998188 -0.00443966 -4.78453e-21)
(0.998462 -0.00447879 -7.37516e-20)
(0.998724 -0.00449745 2.02022e-21)
(0.998973 -0.00449727 6.62346e-20)
(0.99921 -0.00448236 1.95985e-21)
(0.99943 -0.00444763 0)
(0.999646 -0.00441724 0)
(0.999831 -0.00432027 -1.62826e-21)
(0.993794 0.000659632 8.62564e-21)
(0.993819 0.000134666 -5.61301e-21)
(0.993889 -0.000383046 0)
(0.994001 -0.000885165 -2.07302e-20)
(0.994154 -0.00136705 3.00966e-20)
(0.994345 -0.00182408 -1.5403e-22)
(0.99457 -0.00225232 4.07076e-20)
(0.994823 -0.00264868 -3.9428e-20)
(0.9951 -0.00301094 6.55169e-20)
(0.995396 -0.00333769 -1.25839e-19)
(0.995706 -0.00362843 6.0452e-20)
(0.996026 -0.00388293 5.58549e-20)
(0.996351 -0.0041022 -5.43604e-20)
(0.996677 -0.00428761 0)
(0.997002 -0.0044403 -4.73542e-20)
(0.997321 -0.00456269 9.38529e-20)
(0.997634 -0.00465672 -4.37746e-20)
(0.997937 -0.00472457 -8.03584e-20)
(0.998229 -0.00476873 8.3218e-20)
(0.998509 -0.00479136 7.20775e-20)
(0.998775 -0.00479424 -7.04335e-20)
(0.999029 -0.00478159 -6.69211e-20)
(0.999266 -0.00474824 6.14857e-20)
(0.999498 -0.00471918 5.86047e-20)
(0.999698 -0.00462071 -5.82755e-20)
(0.993275 0.000672937 -3.04997e-21)
(0.993302 0.000119248 -3.06357e-21)
(0.993376 -0.000426732 -2.95609e-21)
(0.993495 -0.000956189 5.68743e-21)
(0.993658 -0.00146434 -5.33493e-20)
(0.993859 -0.00194638 1.08714e-20)
(0.994096 -0.00239822 3.95055e-20)
(0.994364 -0.00281665 0)
(0.994657 -0.00319936 3.0593e-20)
(0.99497 -0.00354487 -2.98242e-20)
(0.995299 -0.00385266 0)
(0.995637 -0.00412248 0)
(0.995982 -0.00435539 3.64251e-21)
(0.996328 -0.00455285 0)
(0.996672 -0.00471598 5.05878e-20)
(0.997012 -0.00484735 -1.00143e-19)
(0.997344 -0.00494899 4.94882e-20)
(0.997666 -0.00502316 -7.29953e-23)
(0.997977 -0.00507248 -2.53903e-21)
(0.998276 -0.00509917 0)
(0.99856 -0.00510518 0)
(0.998832 -0.00509478 0)
(0.999086 -0.00506278 2.05278e-21)
(0.999335 -0.00503503 1.99574e-21)
(0.999551 -0.00493484 -5.65277e-20)
(0.992726 0.000684446 1.68084e-21)
(0.992756 0.000100793 1.27866e-20)
(0.992835 -0.000474663 -9.43331e-21)
(0.992961 -0.00103261 -2.97811e-20)
(0.993133 -0.00156812 7.45604e-20)
(0.993346 -0.00207622 -4.97855e-20)
(0.993597 -0.00255264 0)
(0.993879 -0.00299405 0)
(0.994189 -0.00339804 4.68731e-21)
(0.99452 -0.00376307 -9.04602e-21)
(0.994867 -0.00408861 -6.76415e-20)
(0.995225 -0.00437437 6.16749e-20)
(0.995589 -0.00462146 5.67583e-20)
(0.995956 -0.00483142 -1.72633e-21)
(0.996321 -0.00500539 -1.13329e-19)
(0.996681 -0.00514609 5.27208e-20)
(0.997033 -0.0052556 0)
(0.997376 -0.00533629 -8.03671e-23)
(0.997707 -0.00539092 0)
(0.998025 -0.00542178 2.63008e-21)
(0.998328 -0.00543096 7.98699e-20)
(0.998618 -0.00542283 -7.80002e-20)
(0.99889 -0.00539215 6.95603e-20)
(0.999156 -0.00536566 -7.225e-20)
(0.999389 -0.00526357 0)
(0.992148 0.000693954 7.1488e-21)
(0.992181 7.90354e-05 2.44745e-24)
(0.992264 -0.000527167 3.41164e-21)
(0.992398 -0.00111483 -2.56476e-20)
(0.992579 -0.00167886 2.48709e-20)
(0.992805 -0.00221411 0)
(0.993069 -0.00271614 0)
(0.993367 -0.00318148 0)
(0.993694 -0.00360763 0)
(0.994043 -0.00399299 4.77306e-21)
(0.994409 -0.00433701 0)
(0.994788 -0.00463934 -6.43249e-20)
(0.995173 -0.00490119 6.25903e-20)
(0.995561 -0.00512415 0)
(0.995947 -0.00530938 3.62056e-21)
(0.996328 -0.00545975 0)
(0.996702 -0.00557742 5.16074e-20)
(0.997065 -0.00566485 -4.73017e-20)
(0.997416 -0.00572496 2.96918e-21)
(0.997755 -0.0057601 -2.73114e-21)
(0.998078 -0.00577251 7.98457e-20)
(0.998387 -0.00576667 -7.56165e-20)
(0.998676 -0.00573728 -2.37783e-21)
(0.99896 -0.00571205 2.20183e-21)
(0.99921 -0.00560782 0)
(0.991538 0.000701241 9.621e-21)
(0.991573 5.36846e-05 -1.1132e-20)
(0.991663 -0.000584599 -7.20819e-21)
(0.991804 -0.00120324 0)
(0.991996 -0.00179702 0)
(0.992233 -0.00236056 6.47474e-21)
(0.992512 -0.00288928 -4.80638e-20)
(0.992827 -0.00337956 4.66575e-20)
(0.993171 -0.00382881 -4.33777e-20)
(0.993539 -0.00423534 4.21494e-20)
(0.993926 -0.00459861 -3.89073e-20)
(0.994325 -0.00491821 3.31024e-20)
(0.994732 -0.00519542 4.343e-21)
(0.995141 -0.00543191 4.23597e-21)
(0.99555 -0.00562884 6.19544e-20)
(0.995953 -0.00578926 -6.41641e-20)
(0.996348 -0.00591539 5.51836e-20)
(0.996733 -0.00600981 -1.05938e-19)
(0.997106 -0.00607558 -1.42405e-21)
(0.997465 -0.00611512 9.15248e-20)
(0.997808 -0.00613084 -8.93511e-20)
(0.998137 -0.00612731 4.03421e-20)
(0.998446 -0.00609918 5.00177e-21)
(0.998748 -0.00607518 0)
(0.999016 -0.0059686 0)
(0.990895 0.00070606 -6.10933e-21)
(0.990934 2.4426e-05 -1.60036e-20)
(0.991028 -0.000647342 3.08116e-20)
(0.991178 -0.00129831 -1.49629e-20)
(0.99138 -0.0019231 2.83888e-20)
(0.991631 -0.00251616 -2.73008e-20)
(0.991925 -0.0030727 5.83085e-20)
(0.992256 -0.00358898 -9.29517e-20)
(0.992619 -0.0040623 4.16992e-20)
(0.993007 -0.00449091 5.69225e-21)
(0.993415 -0.00487424 0)
(0.993836 -0.00521182 4.44071e-20)
(0.994265 -0.00550503 3.61355e-20)
(0.994697 -0.00575562 -1.4736e-19)
(0.995128 -0.00596472 6.85526e-20)
(0.995554 -0.00613559 -5.86877e-20)
(0.995972 -0.00627052 -1.80763e-21)
(0.99638 -0.00637218 6.12122e-20)
(0.996775 -0.00644381 5.25667e-20)
(0.997155 -0.00648787 -4.82248e-20)
(0.997519 -0.00650699 4.38585e-20)
(0.997869 -0.00650581 -4.29664e-20)
(0.998197 -0.0064789 -5.33015e-21)
(0.998518 -0.00645613 0)
(0.998804 -0.00634697 0)
(0.990217 0.000708144 1.09599e-20)
(0.990259 -9.08155e-06 8.57852e-21)
(0.99036 -0.000715807 -1.26105e-20)
(0.990519 -0.00140051 0)
(0.990732 -0.00205766 0)
(0.990996 -0.0026815 -7.22958e-21)
(0.991306 -0.00326706 -1.40443e-20)
(0.991655 -0.00381046 -6.56379e-21)
(0.992037 -0.00430887 -4.38634e-20)
(0.992445 -0.0047605 3.66516e-20)
(0.992875 -0.00516474 0)
(0.993318 -0.00552107 0)
(0.99377 -0.00583096 0)
(0.994226 -0.00609623 0)
(0.994681 -0.00631802 7.57665e-20)
(0.995131 -0.00649976 -7.37028e-20)
(0.995573 -0.00664383 3.95974e-21)
(0.996004 -0.00675301 5.58768e-20)
(0.996421 -0.00683071 -6.18181e-20)
(0.996824 -0.00687946 -5.30318e-20)
(0.99721 -0.00690206 5.81797e-20)
(0.997581 -0.00690326 -5.02461e-20)
(0.997929 -0.00687758 4.90366e-20)
(0.99827 -0.00685602 0)
(0.998576 -0.00674406 -3.94081e-20)
(0.989503 0.000707201 0)
(0.989549 -4.72079e-05 -1.85222e-20)
(0.989657 -0.000790437 2.25509e-20)
(0.989824 -0.00151036 0)
(0.990049 -0.00220127 0)
(0.990327 -0.00285723 3.1389e-20)
(0.990653 -0.00347306 -2.30482e-20)
(0.99102 -0.00404474 -7.3194e-21)
(0.991423 -0.00456934 0)
(0.991853 -0.00504497 6.35465e-21)
(0.992305 -0.00547103 4.82276e-20)
(0.992772 -0.00584692 -4.69167e-20)
(0.993248 -0.0061742 5.55455e-21)
(0.993728 -0.00645478 0)
(0.994208 -0.00668979 -9.71307e-21)
(0.994683 -0.00688286 9.15322e-21)
(0.995149 -0.00703645 0)
(0.995604 -0.00715345 0)
(0.996045 -0.00723745 6.39243e-20)
(0.996471 -0.00729104 -6.24061e-20)
(0.99688 -0.00731723 5.01367e-20)
(0.997273 -0.00732087 -5.5537e-20)
(0.997642 -0.00729639 -4.46208e-20)
(0.998004 -0.00727605 4.95657e-20)
(0.998329 -0.00716104 0)
(0.988752 0.000702909 0)
(0.988802 -9.03538e-05 0)
(0.988916 -0.000871711 1.44863e-20)
(0.989093 -0.0016284 -2.34027e-20)
(0.98933 -0.00235456 4.5444e-21)
(0.989623 -0.00304403 0)
(0.989966 -0.00369146 -3.21844e-20)
(0.990352 -0.00429265 -2.2303e-20)
(0.990775 -0.00484457 5.19257e-20)
(0.991228 -0.00534526 -7.08562e-21)
(0.991703 -0.00579409 -4.51627e-20)
(0.992195 -0.00619038 5.67849e-20)
(0.992696 -0.0065358 -5.76729e-21)
(0.993202 -0.00683236 0)
(0.993707 -0.00708116 5.1263e-21)
(0.994208 -0.00728603 7.23386e-20)
(0.9947 -0.00744955 -7.05499e-20)
(0.99518 -0.00757468 0)
(0.995646 -0.00766523 0)
(0.996096 -0.00772384 3.80405e-21)
(0.996528 -0.00775374 0)
(0.996944 -0.00775988 3.38318e-21)
(0.997335 -0.0077366 -3.1931e-21)
(0.997718 -0.00771749 4.50515e-20)
(0.998064 -0.00759918 -4.61324e-20)
(0.987961 0.000694919 0)
(0.988015 -0.000138954 1.07355e-20)