/*--------------------------------*- C++ -*----------------------------------*\
| =========                 |                                                 |
| \\      /  F ield         | OpenFOAM: The Open Source CFD Toolbox           |
|  \\    /   O peration     | Version:  v1906                                 |
|   \\  /    A nd           | Web:      www.OpenFOAM.com                      |
|    \\/     M anipulation  |                                                 |
\*---------------------------------------------------------------------------*/
FoamFile
{
    version     2.0;
    format      ascii;
    class       surfaceScalarField;
    location    "0";
    object      phi;
}
// * * * * * * * * * * * * * * * * * * * * * * * * * * * * * * * * * * * * * //

dimensions      [0 3 -1 0 0 0 0];
oriented        oriented;


internalField   nonuniform List<scalar> 
17780
(
0.00250023
-2.29772e-07
0.00250046
-2.33463e-07
0.0025007
-2.40858e-07
0.00250096
-2.52069e-07
0.00250122
-2.67277e-07
0.00250151
-2.86796e-07
0.00250182
-3.10871e-07
0.00250216
-3.39969e-07
0.00250254
-3.74478e-07
0.00250295
-4.15074e-07
0.00250341
-4.62321e-07
0.00250393
-5.17124e-07
0.00250451
-5.80346e-07
0.00250516
-6.53073e-07
0.0025059
-7.36565e-07
0.00250673
-8.32235e-07
0.00250767
-9.41785e-07
0.00250874
-1.06715e-06
0.00250995
-1.21058e-06
0.00251133
-1.37475e-06
0.00251289
-1.56268e-06
0.00251467
-1.77795e-06
0.00251669
-2.02477e-06
0.002519
-2.30809e-06
0.00252163
-2.63375e-06
0.00252464
-3.00864e-06
0.00252808
-3.44118e-06
0.00253202
-3.94122e-06
0.00253655
-4.52089e-06
0.00254174
-5.19492e-06
0.00254772
-5.98134e-06
0.00255462
-6.90272e-06
0.00256261
-7.98723e-06
0.00257188
-9.27071e-06
0.00258268
-1.07994e-05
0.00259532
-1.26336e-05
0.00261017
-1.48536e-05
0.00262774
-1.75682e-05
0.00264867
-2.09282e-05
0.00267381
-2.51481e-05
0.00270436
-3.05424e-05
0.00274194
-3.75887e-05
0.00278899
-4.70446e-05
0.00284917
-6.01767e-05
0.00292842
-7.92501e-05
0.0030371
-0.000108681
0.00319523
-0.000158135
0.00344757
-0.000252336
0.00391651
-0.000468945
-0.00111959
0.0050361
0.00250023
-4.58202e-07
0.00250046
-4.655e-07
0.0025007
-4.80192e-07
0.00250095
-5.02552e-07
0.00250122
-5.32896e-07
0.0025015
-5.71806e-07
0.00250181
-6.19795e-07
0.00250215
-6.77743e-07
0.00250252
-7.46594e-07
0.00250293
-8.2745e-07
0.00250339
-9.21734e-07
0.00250391
-1.03095e-06
0.00250448
-1.15698e-06
0.00250513
-1.30195e-06
0.00250586
-1.46834e-06
0.00250669
-1.65903e-06
0.00250762
-1.87736e-06
0.00250869
-2.12723e-06
0.00250989
-2.4131e-06
0.00251125
-2.74019e-06
0.00251281
-3.11464e-06
0.00251457
-3.54354e-06
0.00251658
-4.03526e-06
0.00251887
-4.59959e-06
0.00252149
-5.24821e-06
0.00252447
-5.99483e-06
0.00252789
-6.85597e-06
0.0025318
-7.85137e-06
0.00253628
-9.00495e-06
0.00254143
-1.03459e-05
0.00254736
-1.191e-05
0.0025542
-1.37417e-05
0.00256211
-1.58967e-05
0.00257129
-1.84457e-05
0.00258197
-2.14795e-05
0.00259445
-2.51165e-05
0.00260911
-2.9514e-05
0.00262642
-3.48843e-05
0.00264702
-4.15205e-05
0.00267171
-4.98376e-05
0.0027016
-6.04396e-05
0.00273825
-7.42363e-05
0.00278386
-9.26531e-05
0.00284172
-0.000118033
0.00291692
-0.000154454
0.00301778
-0.00020954
0.00315843
-0.000298789
0.00336296
-0.000456858
0.00366236
-0.000768345
-0.00144353
0.00398629
0.00250023
-6.83729e-07
0.00250045
-6.9458e-07
0.00250069
-7.1655e-07
0.00250094
-7.49874e-07
0.0025012
-7.95181e-07
0.00250148
-8.53143e-07
0.00250179
-9.24846e-07
0.00250212
-1.01129e-06
0.00250249
-1.11402e-06
0.0025029
-1.2347e-06
0.00250335
-1.37529e-06
0.00250386
-1.5382e-06
0.00250443
-1.72619e-06
0.00250507
-1.9424e-06
0.00250579
-2.19057e-06
0.0025066
-2.475e-06
0.00250753
-2.80061e-06
0.00250857
-3.1732e-06
0.00250976
-3.59947e-06
0.00251111
-4.08715e-06
0.00251264
-4.64535e-06
0.00251438
-5.28461e-06
0.00251636
-6.0174e-06
0.00251862
-6.85822e-06
0.0025212
-7.82439e-06
0.00252414
-8.93628e-06
0.0025275
-1.02183e-05
0.00253135
-1.16997e-05
0.00253576
-1.34158e-05
0.00254082
-1.54097e-05
0.00254665
-1.77341e-05
0.00255336
-2.04544e-05
0.00256111
-2.36523e-05
0.0025701
-2.74312e-05
0.00258054
-3.19238e-05
0.00259273
-3.73024e-05
0.00260701
-4.37945e-05
0.00262383
-5.17059e-05
0.00264377
-6.14562e-05
0.00266757
-7.36344e-05
0.00269621
-8.90888e-05
0.00273106
-0.000109079
0.00277395
-0.000135542
0.00282749
-0.000171575
0.0028954
-0.000222367
0.00298292
-0.000297055
0.00309669
-0.000412562
0.00324128
-0.00060145
0.00339861
-0.000925676
-0.00148309
0.00343817
0.00250022
-9.05044e-07
0.00250045
-9.19425e-07
0.00250068
-9.48425e-07
0.00250092
-9.92575e-07
0.00250118
-1.05253e-06
0.00250145
-1.12928e-06
0.00250175
-1.22407e-06
0.00250208
-1.33852e-06
0.00250244
-1.4744e-06
0.00250284
-1.63408e-06
0.00250329
-1.82014e-06
0.00250378
-2.03571e-06
0.00250434
-2.28443e-06
0.00250497
-2.57049e-06
0.00250568
-2.89877e-06
0.00250648
-3.27495e-06
0.00250738
-3.7056e-06
0.00250841
-4.19829e-06
0.00250957
-4.76189e-06
0.00251089
-5.40659e-06
0.00251239
-6.14439e-06
0.00251409
-6.98917e-06
0.00251603
-7.9573e-06
0.00251824
-9.06789e-06
0.00252076
-1.03436e-05
0.00252364
-1.18113e-05
0.00252692
-1.35027e-05
0.00253068
-1.54564e-05
0.00253498
-1.77182e-05
0.00253991
-2.03444e-05
0.00254558
-2.34036e-05
0.00255211
-2.69805e-05
0.00255964
-3.11809e-05
0.00256835
-3.6138e-05
0.00257844
-4.20222e-05
0.00259019
-4.90533e-05
0.00260392
-5.75205e-05
0.00262002
-6.78091e-05
0.00263901
-8.04436e-05
0.00266153
-9.61514e-05
0.00268841
-0.000115966
0.00272072
-0.000141394
0.00275987
-0.000174692
0.00280765
-0.000219353
0.00286623
-0.000280947
0.0029378
-0.000368625
0.0030229
-0.00049767
0.00311463
-0.000693176
0.00318087
-0.00099192
-0.00142582
0.00312361
0.00250022
-1.12071e-06
0.00250043
-1.13853e-06
0.00250066
-1.17447e-06
0.0025009
-1.22908e-06
0.00250115
-1.30331e-06
0.00250142
-1.39829e-06
0.00250171
-1.51568e-06
0.00250203
-1.65728e-06
0.00250238
-1.82555e-06
0.00250277
-2.02318e-06
0.0025032
-2.25347e-06
0.00250369
-2.52025e-06
0.00250423
-2.82801e-06
0.00250484
-3.18197e-06
0.00250553
-3.58815e-06
0.00250631
-4.05355e-06
0.00250719
-4.58626e-06
0.00250819
-5.19564e-06
0.00250932
-5.89257e-06
0.0025106
-6.68967e-06
0.00251206
-7.60165e-06
0.00251371
-8.64558e-06
0.0025156
-9.84156e-06
0.00251774
-1.12131e-05
0.00252019
-1.27879e-05
0.00252298
-1.45988e-05
0.00252616
-1.66848e-05
0.00252979
-1.90926e-05
0.00253395
-2.18783e-05
0.00253872
-2.511e-05
0.00254419
-2.88709e-05
0.00255047
-3.32631e-05
0.0025577
-3.84138e-05
0.00256605
-4.44827e-05
0.0025757
-5.16724e-05
0.00258689
-6.02433e-05
0.0025999
-7.05349e-05
0.00261509
-8.29961e-05
0.00263288
-9.82304e-05
0.00265379
-0.000117064
0.00267847
-0.000140651
0.00270771
-0.000170634
0.00274242
-0.000209404
0.00278359
-0.000260515
0.00283198
-0.000329337
0.00288739
-0.000424035
0.00294653
-0.000556816
0.00299793
-0.000744573
0.00301138
-0.00100537
-0.00134031
0.00292587
0.00250021
-1.32939e-06
0.00250042
-1.35053e-06
0.00250064
-1.39313e-06
0.00250087
-1.45792e-06
0.00250111
-1.54594e-06
0.00250137
-1.65859e-06
0.00250165
-1.79774e-06
0.00250196
-1.96573e-06
0.0025023
-2.16518e-06
0.00250268
-2.39947e-06
0.0025031
-2.6725e-06
0.00250357
-2.98877e-06
0.00250409
-3.35358e-06
0.00250468
-3.77311e-06
0.00250535
-4.25447e-06
0.0025061
-4.8059e-06
0.00250695
-5.43699e-06
0.00250791
-6.15879e-06
0.00250901
-6.98413e-06
0.00251024
-7.92785e-06
0.00251165
-9.00728e-06
0.00251325
-1.02426e-05
0.00251506
-1.16572e-05
0.00251713
-1.32789e-05
0.00251948
-1.51399e-05
0.00252216
-1.72789e-05
0.00252522
-1.97411e-05
0.00252871
-2.25811e-05
0.00253269
-2.58641e-05
0.00253725
-2.96689e-05
0.00254247
-3.40915e-05
0.00254846
-3.92493e-05
0.00255533
-4.52882e-05
0.00256324
-5.23897e-05
0.00257235
-6.07831e-05
0.00258287
-7.07612e-05
0.00259503
-8.27018e-05
0.00260914
-9.70997e-05
0.00262552
-0.000114611
0.00264457
-0.000136121
0.00266676
-0.000162837
0.00269257
-0.000196441
0.00272246
-0.000239295
0.0027567
-0.00029476
0.00279499
-0.000367619
0.00283552
-0.00046457
0.00287319
-0.000594487
0.00289606
-0.000767441
0.00288055
-0.000989857
-0.00125109
0.00279134
0.0025002
-1.52985e-06
0.0025004
-1.55417e-06
0.00250061
-1.60319e-06
0.00250083
-1.67772e-06
0.00250107
-1.77897e-06
0.00250132
-1.90859e-06
0.00250159
-2.06864e-06
0.00250188
-2.2618e-06
0.00250221
-2.49124e-06
0.00250257
-2.76072e-06
0.00250297
-3.07468e-06
0.00250342
-3.43835e-06
0.00250393
-3.85781e-06
0.00250449
-4.34009e-06
0.00250513
-4.89339e-06
0.00250585
-5.52716e-06
0.00250667
-6.25234e-06
0.00250759
-7.08155e-06
0.00250864
-8.02946e-06
0.00250982
-9.11308e-06
0.00251117
-1.03521e-05
0.00251269
-1.17695e-05
0.00251443
-1.3392e-05
0.0025164
-1.52511e-05
0.00251865
-1.73835e-05
0.0025212
-1.98326e-05
0.00252411
-2.265e-05
0.00252742
-2.58967e-05
0.00253121
-2.96462e-05
0.00253552
-3.39865e-05
0.00254046
-3.90248e-05
0.0025461
-4.48915e-05
0.00255256
-5.17474e-05
0.00255996
-5.97919e-05
0.00256845
-6.92748e-05
0.0025782
-8.05125e-05
0.00258941
-9.3909e-05
0.0026023
-0.000109987
0.00261712
-0.00012943
0.00263414
-0.000153143
0.00265363
-0.000182334
0.00267583
-0.000218635
0.00270079
-0.00026426
0.00272824
-0.00032221
0.00275711
-0.00039649
0.00278477
-0.000492228
0.00280563
-0.000615347
0.00280918
-0.000770987
0.0027785
-0.000959181
-0.0011664
0.00269381
0.00250019
-1.72079e-06
0.00250038
-1.74813e-06
0.00250058
-1.80326e-06
0.00250079
-1.88705e-06
0.00250102
-2.00088e-06
0.00250125
-2.14657e-06
0.00250151
-2.32658e-06
0.00250179
-2.54375e-06
0.0025021
-2.80166e-06
0.00250245
-3.10455e-06
0.00250283
-3.45742e-06
0.00250326
-3.86611e-06
0.00250374
-4.33744e-06
0.00250428
-4.87931e-06
0.00250489
-5.50086e-06
0.00250557
-6.21266e-06
0.00250635
-7.02695e-06
0.00250722
-7.95789e-06
0.00250821
-9.02178e-06
0.00250934
-1.02376e-05
0.00251061
-1.16272e-05
0.00251206
-1.32163e-05
0.0025137
-1.50345e-05
0.00251557
-1.71165e-05
0.00251769
-1.95033e-05
0.0025201
-2.22425e-05
0.00252284
-2.5391e-05
0.00252596
-2.90159e-05
0.00252951
-3.31973e-05
0.00253355
-3.80315e-05
0.00253816
-4.36345e-05
0.00254342
-5.01473e-05
0.00254942
-5.77423e-05
0.00255626
-6.66322e-05
0.00256406
-7.70811e-05
0.00257297
-8.94204e-05
0.00258313
-0.000104069
0.0025947
-0.00012156
0.00260785
-0.000142582
0.00262274
-0.000168025
0.00263945
-0.000199053
0.00265801
-0.000237186
0.00267816
-0.00028441
0.00269923
-0.000343281
0.00271972
-0.000416979
0.00273668
-0.00050919
0.00274484
-0.000623503
0.00273566
-0.000761816
0.00269756
-0.000921073
-0.00108845
0.0026196
0.00250018
-1.9011e-06
0.00250036
-1.93126e-06
0.00250055
-1.99214e-06
0.00250075
-2.08468e-06
0.00250096
-2.21036e-06
0.00250118
-2.3713e-06
0.00250143
-2.56997e-06
0.00250169
-2.80973e-06
0.00250199
-3.09447e-06
0.00250231
-3.42883e-06
0.00250267
-3.81834e-06
0.00250307
-4.26942e-06
0.00250353
-4.78956e-06
0.00250403
-5.38742e-06
0.00250461
-6.07308e-06
0.00250525
-6.85817e-06
0.00250598
-7.75605e-06
0.00250681
-8.78228e-06
0.00250774
-9.95472e-06
0.0025088
-1.12941e-05
0.00250999
-1.28245e-05
0.00251135
-1.45736e-05
0.00251289
-1.65738e-05
0.00251464
-1.8863e-05
0.00251662
-2.14854e-05
0.00251887
-2.44926e-05
0.00252142
-2.7946e-05
0.00252433
-3.19177e-05
0.00252762
-3.64935e-05
0.00253137
-4.17762e-05
0.00253562
-4.78889e-05
0.00254045
-5.49803e-05
0.00254594
-6.32314e-05
0.00255217
-7.28635e-05
0.00255924
-8.41491e-05
0.00256725
-9.74264e-05
0.0025763
-0.000113118
0.00258649
-0.000131754
0.00259791
-0.000154006
0.00261062
-0.000180726
0.00262456
-0.000212996
0.00263956
-0.000252186
0.00265516
-0.000300012
0.00267044
-0.000358559
0.0026837
-0.000430237
0.00269203
-0.000517519
0.00269081
-0.000622285
0.00267345
-0.000744463
0.00263218
-0.000879793
-0.0010173
0.00256103
0.00250017
-2.06958e-06
0.00250034
-2.1024e-06
0.00250052
-2.16866e-06
0.0025007
-2.26933e-06
0.0025009
-2.4061e-06
0.00250111
-2.58113e-06
0.00250133
-2.79736e-06
0.00250158
-3.0582e-06
0.00250186
-3.36794e-06
0.00250216
-3.73164e-06
0.0025025
-4.15526e-06
0.00250287
-4.64576e-06
0.00250329
-5.21129e-06
0.00250377
-5.86125e-06
0.0025043
-6.60649e-06
0.0025049
-7.45959e-06
0.00250558
-8.43505e-06
0.00250635
-9.54961e-06
0.00250722
-1.08225e-05
0.0025082
-1.22761e-05
0.00250931
-1.39362e-05
0.00251057
-1.58327e-05
0.002512
-1.80003e-05
0.00251361
-2.04794e-05
0.00251544
-2.33171e-05
0.00251752
-2.65685e-05
0.00251987
-3.02985e-05
0.00252254
-3.45834e-05
0.00252556
-3.95137e-05
0.00252898
-4.51967e-05
0.00253285
-5.17609e-05
0.00253723
-5.93603e-05
0.00254218
-6.81811e-05
0.00254777
-7.84488e-05
0.00255406
-9.0439e-05
0.00256112
-0.000104489
0.00256902
-0.000121016
0.0025778
-0.000140535
0.00258748
-0.000163685
0.00259801
-0.000191258
0.00260925
-0.000224236
0.00262088
-0.000263814
0.00263229
-0.000311425
0.00264244
-0.000368709
0.0026496
-0.000437399
0.0026511
-0.000519017
0.00264308
-0.000614266
0.00262059
-0.000721973
0.00257846
-0.000837664
-0.000952355
0.00251352
0.00250016
-2.22523e-06
0.00250031
-2.26052e-06
0.00250048
-2.3317e-06
0.00250065
-2.43991e-06
0.00250083
-2.58687e-06
0.00250102
-2.77499e-06
0.00250123
-3.00729e-06
0.00250146
-3.28754e-06
0.00250171
-3.62029e-06
0.00250199
-4.01097e-06
0.0025023
-4.46599e-06
0.00250265
-4.99278e-06
0.00250304
-5.60003e-06
0.00250348
-6.29781e-06
0.00250397
-7.09772e-06
0.00250452
-8.01321e-06
0.00250515
-9.05969e-06
0.00250585
-1.0255e-05
0.00250665
-1.16197e-05
0.00250755
-1.31775e-05
0.00250857
-1.49557e-05
0.00250972
-1.6986e-05
0.00251103
-1.93051e-05
0.0025125
-2.19556e-05
0.00251417
-2.49871e-05
0.00251606
-2.84574e-05
0.0025182
-3.24342e-05
0.00252061
-3.69971e-05
0.00252334
-4.22397e-05
0.00252641
-4.8273e-05
0.00252988
-5.52285e-05
0.00253378
-6.32633e-05
0.00253817
-7.25655e-05
0.00254308
-8.33614e-05
0.00254857
-9.59242e-05
0.00255466
-0.000110585
0.00256139
-0.000127746
0.00256876
-0.000147898
0.00257671
-0.000171636
0.00258513
-0.00019968
0.00259379
-0.000232897
0.00260228
-0.000272304
0.00260991
-0.000319059
0.00261561
-0.000374403
0.00261772
-0.000439511
0.00261389
-0.000515192
0.00260101
-0.000601379
0.0025754
-0.000696364
0.00253366
-0.000795926
-0.000892848
0.00247415
0.00250014
-2.36707e-06
0.00250029
-2.40461e-06
0.00250043
-2.48028e-06
0.00250059
-2.59534e-06
0.00250075
-2.75156e-06
0.00250093
-2.95154e-06
0.00250112
-3.19847e-06
0.00250133
-3.49636e-06
0.00250156
-3.85004e-06
0.00250182
-4.26523e-06
0.0025021
-4.7487e-06
0.00250241
-5.30838e-06
0.00250277
-5.95343e-06
0.00250316
-6.6945e-06
0.00250361
-7.54384e-06
0.00250411
-8.51564e-06
0.00250468
-9.62618e-06
0.00250532
-1.08943e-05
0.00250604
-1.23415e-05
0.00250685
-1.39927e-05
0.00250778
-1.58767e-05
0.00250882
-1.80265e-05
0.00250999
-2.04805e-05
0.00251132
-2.32831e-05
0.00251282
-2.64858e-05
0.00251451
-3.01485e-05
0.00251642
-3.4341e-05
0.00251856
-3.91453e-05
0.00252098
-4.4657e-05
0.0025237
-5.0989e-05
0.00252674
-5.82745e-05
0.00253015
-6.66712e-05
0.00253395
-7.63665e-05
0.00253817
-8.75838e-05
0.00254284
-0.00010059
0.00254796
-0.000115704
0.00255352
-0.000133308
0.00255948
-0.00015386
0.00256575
-0.000177904
0.00257215
-0.000206082
0.0025784
-0.000239141
0.00258402
-0.000277923
0.0025883
-0.000323338
0.00259018
-0.000376284
0.00258816
-0.000437492
0.00258023
-0.000507263
0.0025639
-0.000585057
0.00253651
-0.000668967
0.0024958
-0.000755218
-0.00083805
0.002441
0.00250013
-2.49425e-06
0.00250026
-2.53379e-06
0.00250039
-2.6135e-06
0.00250053
-2.7346e-06
0.00250068
-2.89919e-06
0.00250083
-3.10977e-06
0.00250101
-3.36979e-06
0.00250119
-3.68343e-06
0.0025014
-4.05576e-06
0.00250163
-4.49281e-06
0.00250188
-5.00167e-06
0.00250216
-5.59064e-06
0.00250248
-6.26933e-06
0.00250283
-7.04889e-06
0.00250323
-7.94215e-06
0.00250368
-8.96391e-06
0.00250418
-1.01312e-05
0.00250475
-1.14635e-05
0.00250539
-1.29835e-05
0.00250612
-1.4717e-05
0.00250694
-1.66937e-05
0.00250786
-1.89481e-05
0.0025089
-2.15197e-05
0.00251007
-2.44543e-05
0.00251139
-2.78047e-05
0.00251287
-3.16325e-05
0.00251454
-3.60089e-05
0.00251641
-4.1017e-05
0.00251851
-4.67537e-05
0.00252085
-5.33325e-05
0.00252346
-6.08864e-05
0.00252636
-6.95718e-05
0.00252957
-7.9573e-05
0.00253309
-9.11074e-05
0.00253694
-0.000104432
0.00254108
-0.00011985
0.00254549
-0.000137719
0.00255009
-0.000158458
0.00255474
-0.000182557
0.00255924
-0.000210577
0.00256325
-0.000243148
0.00256628
-0.000280951
0.00256761
-0.000324676
0.00256627
-0.000374937
0.0025609
-0.000432128
0.00254984
-0.000496199
0.00253113
-0.000566345
0.00250282
-0.000640655
0.00246344
-0.000715847
-0.000787318
0.00241271
0.00250011
-2.606e-06
0.00250023
-2.64729e-06
0.00250034
-2.73049e-06
0.00250046
-2.85704e-06
0.00250059
-3.02881e-06
0.00250073
-3.24866e-06
0.00250088
-3.52011e-06
0.00250105
-3.84751e-06
0.00250123
-4.23615e-06
0.00250143
-4.6923e-06
0.00250165
-5.22331e-06
0.0025019
-5.83782e-06
0.00250217
-6.54581e-06
0.00250248
-7.35884e-06
0.00250283
-8.29023e-06
0.00250322
-9.3553e-06
0.00250366
-1.05717e-05
0.00250416
-1.19596e-05
0.00250472
-1.35422e-05
0.00250535
-1.53463e-05
0.00250606
-1.74024e-05
0.00250685
-1.97458e-05
0.00250775
-2.24171e-05
0.00250876
-2.5463e-05
0.00250989
-2.89373e-05
0.00251116
-3.29023e-05
0.00251258
-3.74301e-05
0.00251417
-4.26042e-05
0.00251594
-4.85216e-05
0.0025179
-5.52952e-05
0.00252007
-6.30563e-05
0.00252246
-7.19585e-05
0.00252506
-8.21806e-05
0.00252789
-9.39318e-05
0.00253091
-0.000107456
0.0025341
-0.000123038
0.00253739
-0.000141008
0.00254068
-0.000161744
0.0025438
-0.000185679
0.00254652
-0.000213295
0.00254848
-0.000245112
0.0025492
-0.000281666
0.00254798
-0.000323461
0.00254393
-0.000370883
0.00253588
-0.000424077
0.00252244
-0.000482762
0.0025021
-0.000546006
0.00247344
-0.000612
0.00243553
-0.000677929
-0.000740102
0.00238831
0.0025001
-2.70162e-06
0.00250019
-2.74439e-06
0.00250029
-2.83062e-06
0.0025004
-2.96165e-06
0.00250051
-3.13964e-06
0.00250063
-3.36741e-06
0.00250076
-3.64861e-06
0.0025009
-3.98773e-06
0.00250105
-4.39022e-06
0.00250122
-4.86256e-06
0.00250141
-5.41237e-06
0.00250162
-6.04851e-06
0.00250186
-6.78128e-06
0.00250212
-7.62256e-06
0.00250241
-8.5861e-06
0.00250275
-9.6876e-06
0.00250312
-1.09451e-05
0.00250354
-1.23795e-05
0.00250401
-1.40144e-05
0.00250454
-1.58771e-05
0.00250514
-1.79988e-05
0.00250581
-2.04155e-05
0.00250656
-2.31682e-05
0.0025074
-2.63043e-05
0.00250834
-2.98781e-05
0.00250939
-3.39522e-05
0.00251056
-3.85988e-05
0.00251186
-4.3901e-05
0.00251329
-4.9955e-05
0.00251487
-5.68721e-05
0.00251659
-6.47806e-05
0.00251846
-7.38295e-05
0.00252047
-8.41908e-05
0.00252261
-9.60635e-05
0.00252483
-0.000109677
0.00252708
-0.000125295
0.00252929
-0.000143216
0.00253133
-0.000163781
0.00253301
-0.000187364
0.00253409
-0.000214371
0.0025342
-0.000245225
0.00253287
-0.000280335
0.00252946
-0.000320047
0.00252315
-0.000364574
0.00251295
-0.000413881
0.00249773
-0.000467545
0.00247632
-0.000524594
0.00244769
-0.000583369
0.00241124
-0.000641477
-0.00069594
0.00236708
0.00250008
-2.78052e-06
0.00250016
-2.8245e-06
0.00250024
-2.91321e-06
0.00250033
-3.04801e-06
0.00250042
-3.23108e-06
0.00250052
-3.46532e-06
0.00250062
-3.75448e-06
0.00250074
-4.10318e-06
0.00250087
-4.51701e-06
0.00250101
-5.0026e-06
0.00250116
-5.56771e-06
0.00250133
-6.22144e-06
0.00250153
-6.97437e-06
0.00250174
-7.8386e-06
0.00250198
-8.82809e-06
0.00250226
-9.95893e-06
0.00250256
-1.12496e-05
0.0025029
-1.27211e-05
0.00250329
-1.43976e-05
0.00250371
-1.63067e-05
0.0025042
-1.84801e-05
0.00250473
-2.09539e-05
0.00250534
-2.37696e-05
0.00250601
-2.69746e-05
0.00250675
-3.06235e-05
0.00250758
-3.47785e-05
0.00250849
-3.95113e-05
0.00250949
-4.49041e-05
0.00251059
-5.10514e-05
0.00251178
-5.80616e-05
0.00251306
-6.60594e-05
0.00251442
-7.51878e-05
0.00251584
-8.56107e-05
0.00251729
-9.75153e-05
0.00251873
-0.000111115
0.00252008
-0.000126651
0.00252126
-0.000144392
0.00252212
-0.000164638
0.00252246
-0.00018771
0.00252204
-0.000213945
0.00252049
-0.000243676
0.00251736
-0.000277205
0.00251206
-0.000314753
0.00250389
-0.000356399
0.00249199
-0.000401983
0.00247545
-0.000451005
0.00245336
-0.000502508
0.00242499
-0.000554998
0.00238996
-0.00060645
-0.000654442
0.00234847
0.00250006
-2.84224e-06
0.00250012
-2.88722e-06
0.00250019
-2.97778e-06
0.00250026
-3.1155e-06
0.00250033
-3.30247e-06
0.0025004
-3.5417e-06
0.00250049
-3.83705e-06
0.00250058
-4.19318e-06
0.00250068
-4.61572e-06
0.00250078
-5.11147e-06
0.00250091
-5.68841e-06
0.00250104
-6.35567e-06
0.00250119
-7.12394e-06
0.00250136
-8.0056e-06
0.00250154
-9.01487e-06
0.00250175
-1.01679e-05
0.00250199
-1.14834e-05
0.00250225
-1.29826e-05
0.00250254
-1.46899e-05
0.00250287
-1.66331e-05
0.00250323
-1.88439e-05
0.00250363
-2.13587e-05
0.00250408
-2.42189e-05
0.00250458
-2.74717e-05
0.00250513
-3.11712e-05
0.00250573
-3.53791e-05
0.00250638
-4.0166e-05
0.00250709
-4.56125e-05
0.00250785
-5.18107e-05
0.00250866
-5.88654e-05
0.00250949
-6.68966e-05
0.00251035
-7.60405e-05
0.00251119
-8.64517e-05
0.00251198
-9.83049e-05
0.00251266
-0.000111796
0.00251315
-0.000127145
0.00251335
-0.00014459
0.0025131
-0.000164391
0.00251221
-0.000186821
0.00251042
-0.000212153
0.00250739
-0.000240643
0.00250269
-0.000272504
0.00249579
-0.000307858
0.00248608
-0.000346684
0.00247284
-0.000388743
0.00245533
-0.000433496
0.00243286
-0.000480036
0.00240489
-0.000527034
0.00237122
-0.000572775
-0.000615276
0.00233205
0.00250004
-2.88643e-06
0.00250009
-2.93201e-06
0.00250014
-3.02396e-06
0.00250018
-3.1637e-06
0.00250023
-3.3535e-06
0.00250029
-3.59629e-06
0.00250035
-3.89591e-06
0.00250041
-4.25719e-06
0.00250048
-4.6859e-06
0.00250056
-5.18877e-06
0.00250064
-5.77379e-06
0.00250074
-6.45034e-06
0.00250084
-7.22925e-06
0.00250096
-8.12287e-06
0.00250109
-9.14542e-06
0.00250124
-1.03133e-05
0.0025014
-1.16454e-05
0.00250158
-1.31629e-05
0.00250178
-1.48901e-05
0.002502
-1.68549e-05
0.00250225
-1.90891e-05
0.00250252
-2.16287e-05
0.00250281
-2.45147e-05
0.00250314
-2.77941e-05
0.00250348
-3.15202e-05
0.00250386
-3.57535e-05
0.00250426
-4.05631e-05
0.00250467
-4.60273e-05
0.0025051
-5.22352e-05
0.00250552
-5.92878e-05
0.00250592
-6.72992e-05
0.00250628
-7.63981e-05
0.00250656
-8.67294e-05
0.00250671
-9.84546e-05
0.00250666
-0.000111753
0.00250634
-0.00012682
0.00250561
-0.000143868
0.00250434
-0.000163118
0.00250232
-0.000184798
0.00249929
-0.000209127
0.00249494
-0.000236294
0.00248888
-0.000266439
0.00248063
-0.000299608
0.00246965
-0.000335707
0.00245536
-0.000374449
0.00243715
-0.00041529
0.0024145
-0.000457384
0.00238703
-0.000499561
0.00235462
-0.000540365
-0.000578162
0.0023175
0.00250003
-2.91275e-06
0.00250005
-2.95877e-06
0.00250008
-3.05153e-06
0.00250011
-3.19246e-06
0.00250014
-3.38377e-06
0.00250017
-3.62854e-06
0.00250021
-3.93072e-06
0.00250024
-4.29498e-06
0.00250029
-4.72705e-06
0.00250033
-5.23385e-06
0.00250038
-5.82348e-06
0.00250044
-6.50521e-06
0.0025005
-7.28973e-06
0.00250056
-8.18964e-06
0.00250064
-9.21925e-06
0.00250072
-1.03948e-05
0.00250081
-1.1735e-05
0.00250091
-1.32611e-05
0.00250101
-1.49974e-05
0.00250113
-1.69716e-05
0.00250126
-1.9215e-05
0.00250139
-2.17632e-05
0.00250153
-2.46569e-05
0.00250168
-2.79422e-05
0.00250183
-3.16711e-05
0.00250198
-3.59029e-05
0.00250212
-4.07044e-05
0.00250225
-4.61516e-05
0.00250234
-5.233e-05
0.00250239
-5.93357e-05
0.00250237
-6.72768e-05
0.00250224
-7.62744e-05
0.00250198
-8.64626e-05
0.00250151
-9.79899e-05
0.00250078
-0.000111018
0.00249968
-0.000125721
0.00249809
-0.000142284
0.00249587
-0.000160896
0.00249282
-0.000181742
0.00248868
-0.000204992
0.00248317
-0.000230783
0.00247592
-0.000259193
0.00246653
-0.000290212
0.00245452
-0.000323698
0.0024394
-0.000359336
0.00242071
-0.000396595
0.00239802
-0.0004347
0.00237109
-0.000472623
0.00233985
-0.000509129
-0.000542861
0.00230455
0.00250001
-2.92116e-06
0.00250002
-2.96729e-06
0.00250003
-3.06017e-06
0.00250003
-3.20136e-06
0.00250004
-3.39316e-06
0.00250005
-3.63851e-06
0.00250006
-3.94119e-06
0.00250008
-4.30608e-06
0.00250009
-4.73901e-06
0.0025001
-5.24672e-06
0.00250011
-5.83714e-06
0.00250013
-6.5197e-06
0.00250014
-7.30518e-06
0.00250016
-8.20592e-06
0.00250018
-9.23605e-06
0.00250019
-1.04119e-05
0.00250021
-1.17519e-05
0.00250023
-1.32773e-05
0.00250024
-1.50119e-05
0.00250025
-1.69831e-05
0.00250026
-1.92217e-05
0.00250026
-2.17629e-05
0.00250025
-2.46463e-05
0.00250022
-2.79169e-05
0.00250018
-3.16256e-05
0.0025001
-3.58296e-05
0.00249999
-4.05936e-05
0.00249983
-4.59904e-05
0.0024996
-5.21015e-05
0.00249929
-5.9018e-05
0.00249885
-6.68419e-05
0.00249826
-7.56855e-05
0.00249747
-8.56728e-05
0.00249642
-9.69388e-05
0.00249503
-0.000109629
0.00249321
-0.000123897
0.00249082
-0.000139901
0.00248773
-0.000157801
0.00248373
-0.000177745
0.00247861
-0.000199864
0.00247207
-0.000224247
0.00246381
-0.000250929
0.00245345
-0.000279853
0.0024406
-0.000310848
0.00242485
-0.000343589
0.00240582
-0.000377569
0.00238321
-0.000412086
0.00235683
-0.00044624
0.00232668
-0.000478978
-0.000509166
0.00229298
0.00249999
-2.91153e-06
0.00249998
-2.9574e-06
0.00249997
-3.05003e-06
0.00249996
-3.19073e-06
0.00249995
-3.38167e-06
0.00249994
-3.62593e-06
0.00249992
-3.92742e-06
0.00249991
-4.29081e-06
0.00249989
-4.72176e-06
0.00249987
-5.22713e-06
0.00249985
-5.81484e-06
0.00249982
-6.49411e-06
0.00249979
-7.27558e-06
0.00249976
-8.17152e-06
0.00249972
-9.19593e-06
0.00249967
-1.03648e-05
0.00249962
-1.16965e-05
0.00249955
-1.32117e-05
0.00249947
-1.4934e-05
0.00249938
-1.68901e-05
0.00249927
-1.91103e-05
0.00249913
-2.16289e-05
0.00249897
-2.44844e-05
0.00249878
-2.77206e-05
0.00249854
-3.13865e-05
0.00249824
-3.55376e-05
0.00249789
-4.02356e-05
0.00249745
-4.55501e-05
0.0024969
-5.15583e-05
0.00249623
-5.83461e-05
0.0024954
-6.60086e-05
0.00249436
-7.46499e-05
0.00249307
-8.43835e-05
0.00249146
-9.53314e-05
0.00248946
-0.000107623
0.00248696
-0.000121393
0.00248383
-0.000136778
0.00247994
-0.000153907
0.00247509
-0.0001729
0.00246908
-0.000193851
0.00246165
-0.000216815
0.00245251
-0.000241788
0.00244134
-0.000268685
0.00242781
-0.000297316
0.00241158
-0.000327357
0.00239234
-0.000358335
0.00236987
-0.000389614
0.00234404
-0.00042041
0.00231488
-0.000449822
-0.000476899
0.00228262
0.00249997
-2.88397e-06
0.00249994
-2.92944e-06
0.00249992
-3.02107e-06
0.00249989
-3.16029e-06
0.00249985
-3.34933e-06
0.00249982
-3.59112e-06
0.00249978
-3.88946e-06
0.00249974
-4.24906e-06
0.00249969
-4.67549e-06
0.00249964
-5.17545e-06
0.00249958
-5.75679e-06
0.00249952
-6.4286e-06
0.00249944
-7.20129e-06
0.00249936
-8.08691e-06
0.00249926
-9.09933e-06
0.00249915
-1.02542e-05
0.00249902
-1.15694e-05
0.00249888
-1.30652e-05
0.00249871
-1.47647e-05
0.00249851
-1.66939e-05
0.00249828
-1.88823e-05
0.00249802
-2.13631e-05
0.00249771
-2.41737e-05
0.00249734
-2.73563e-05
0.00249691
-3.09581e-05
0.00249641
-3.50319e-05
0.00249581
-3.96368e-05
0.0024951
-4.48388e-05
0.00249425
-5.07105e-05
0.00249324
-5.73325e-05
0.00249202
-6.47929e-05
0.00249056
-7.31876e-05
0.0024888
-8.26198e-05
0.00248666
-9.31992e-05
0.00248408
-0.00010504
0.00248095
-0.00011826
0.00247714
-0.000132972
0.00247252
-0.000149285
0.00246691
-0.00016729
0.00246011
-0.000187052
0.00245189
-0.000208597
0.002442
-0.000231895
0.00243016
-0.00025684
0.00241607
-0.000283233
0.00239948
-0.00031076
0.00238012
-0.000338982
0.00235784
-0.000367331
0.00233255
-0.00039512
0.00230431
-0.000421579
-0.000445903
0.00227331
0.00249995
-2.83863e-06
0.00249991
-2.88335e-06
0.00249986
-2.97348e-06
0.00249981
-3.11041e-06
0.00249976
-3.29634e-06
0.0024997
-3.53418e-06
0.00249964
-3.82758e-06
0.00249957
-4.18113e-06
0.0024995
-4.60043e-06
0.00249941
-5.09201e-06
0.00249932
-5.66344e-06
0.00249921
-6.3236e-06
0.0024991
-7.08284e-06
0.00249896
-7.95289e-06
0.00249881
-8.94714e-06
0.00249864
-1.00809e-05
0.00249844
-1.13717e-05
0.00249821
-1.28392e-05
0.00249795
-1.45057e-05
0.00249766
-1.63966e-05
0.00249731
-1.85402e-05
0.00249692
-2.09686e-05
0.00249646
-2.37179e-05
0.00249594
-2.68283e-05
0.00249532
-3.03452e-05
0.00249461
-3.43187e-05
0.00249378
-3.88049e-05
0.00249281
-4.38658e-05
0.00249166
-4.95697e-05
0.00249032
-5.59914e-05
0.00248874
-6.32123e-05
0.00248687
-7.132e-05
0.00248466
-8.0408e-05
0.00248204
-9.05741e-05
0.00247892
-0.000101919
0.0024752
-0.000114543
0.00247077
-0.000128542
0.00246549
-0.000144003
0.00245919
-0.000160994
0.00245169
-0.000179557
0.00244279
-0.000199695
0.00243226
-0.000221358
0.00241985
-0.000244429
0.00240532
-0.000268706
0.00238845
-0.000293891
0.00236905
-0.00031958
0.00234698
-0.000345266
0.00232221
-0.00037035
0.0022948
-0.000394169
-0.000416042
0.00226494
0.00249994
-2.77589e-06
0.00249987
-2.81954e-06
0.00249981
-2.90761e-06
0.00249974
-3.04149e-06
0.00249967
-3.22317e-06
0.00249959
-3.4555e-06
0.0024995
-3.74216e-06
0.00249941
-4.08762e-06
0.0024993
-4.49721e-06
0.00249919
-4.97728e-06
0.00249906
-5.53533e-06
0.00249892
-6.17997e-06
0.00249876
-6.92115e-06
0.00249857
-7.7703e-06
0.00249837
-8.74043e-06
0.00249813
-9.84636e-06
0.00249787
-1.1105e-05
0.00249756
-1.25354e-05
0.00249722
-1.41591e-05
0.00249682
-1.60004e-05
0.00249637
-1.80867e-05
0.00249585
-2.04487e-05
0.00249525
-2.31209e-05
0.00249456
-2.61416e-05
0.00249377
-2.95538e-05
0.00249286
-3.34052e-05
0.0024918
-3.77485e-05
0.00249058
-4.26417e-05
0.00248916
-4.81485e-05
0.0024875
-5.43381e-05
0.00248558
-6.12852e-05
0.00248332
-6.90695e-05
0.00248069
-7.7775e-05
0.00247761
-8.74885e-05
0.00247399
-9.82978e-05
0.00246973
-0.000110289
0.00246473
-0.000123541
0.00245885
-0.000138122
0.00245194
-0.000154083
0.00244383
-0.000171446
0.00243433
-0.000190197
0.00242324
-0.000210272
0.00241036
-0.000231548
0.00239548
-0.000253826
0.00237842
-0.000276825
0.00235902
-0.00030018
0.00233719
-0.000323437
0.00231291
-0.000346074
0.00228626
-0.00036752
-0.000387195
0.00225741
0.00249992
-2.69598e-06
0.00249984
-2.73842e-06
0.00249976
-2.8239e-06
0.00249967
-2.9538e-06
0.00249957
-3.13014e-06
0.00249947
-3.35566e-06
0.00249937
-3.63384e-06
0.00249925
-3.96904e-06
0.00249912
-4.36645e-06
0.00249897
-4.83215e-06
0.00249881
-5.37342e-06
0.00249863
-5.99861e-06
0.00249842
-6.71729e-06
0.00249819
-7.54042e-06
0.00249794
-8.48062e-06
0.00249764
-9.55218e-06
0.00249731
-1.07713e-05
0.00249693
-1.21561e-05
0.0024965
-1.37275e-05
0.002496
-1.55086e-05
0.00249544
-1.75256e-05
0.0024948
-1.98077e-05
0.00249407
-2.23877e-05
0.00249323
-2.53019e-05