/*--------------------------------*- C++ -*----------------------------------*\
| =========                 |                                                 |
| \\      /  F ield         | OpenFOAM: The Open Source CFD Toolbox           |
|  \\    /   O peration     | Version:  v1906                                 |
|   \\  /    A nd           | Web:      www.OpenFOAM.com                      |
|    \\/     M anipulation  |                                                 |
\*---------------------------------------------------------------------------*/
FoamFile
{
    version     2.0;
    format      ascii;
    class       volVectorField;
    location    "4000";
    object      U;
}
// * * * * * * * * * * * * * * * * * * * * * * * * * * * * * * * * * * * * * //

dimensions      [0 1 -1 0 0 0 0];


internalField   nonuniform List<vector> 
58000
(
(0.999999 1.40825e-05 2.91e-22)
(0.999998 1.23468e-05 0)
(0.999998 1.05933e-05 1.67931e-20)
(0.999998 8.82157e-06 -1.73922e-20)
(0.999998 7.03715e-06 0)
(0.999998 5.24089e-06 -4.11187e-21)
(0.999998 3.43304e-06 2.27451e-24)
(0.999998 1.61393e-06 0)
(0.999999 -2.16071e-07 3.79371e-21)
(0.999999 -2.05662e-06 0)
(0.999999 -3.90735e-06 1.08091e-19)
(0.999999 -5.76794e-06 -1.19511e-19)
(0.999999 -7.638e-06 1.16557e-19)
(1 -9.5172e-06 -1.07119e-19)
(1 -1.14051e-05 0)
(1 -1.33015e-05 8.93222e-20)
(1 -1.52058e-05 6.15677e-21)
(1 -1.71176e-05 -8.53839e-20)
(1 -1.90367e-05 -1.19193e-20)
(1 -2.09624e-05 2.33198e-20)
(1 -2.28944e-05 0)
(1 -2.48322e-05 -1.1158e-20)
(1 -2.67754e-05 0)
(1.00001 -2.87234e-05 0)
(1.00001 -3.06758e-05 -1.04752e-20)
(1.00001 -3.2632e-05 1.02598e-20)
(1.00001 -3.45915e-05 -1.60561e-19)
(1.00001 -3.65538e-05 1.57655e-19)
(1.00001 -3.85182e-05 1.44517e-19)
(1.00001 -4.04843e-05 -1.60921e-19)
(1.00001 -4.24514e-05 -1.85404e-20)
(1.00001 -4.44189e-05 1.27056e-19)
(1.00001 -4.63862e-05 -1.60658e-19)
(1.00002 -4.83527e-05 0)
(1.00002 -5.03177e-05 9.51751e-24)
(1.00002 -5.22806e-05 0)
(1.00002 -5.42406e-05 0)
(1.00002 -5.61971e-05 -2.42617e-19)
(1.00002 -5.81493e-05 9.69367e-22)
(1.00002 -6.00966e-05 2.34665e-19)
(1.00003 -6.20382e-05 2.14038e-19)
(1.00003 -6.39733e-05 -2.41235e-19)
(1.00003 -6.59011e-05 0)
(1.00003 -6.7821e-05 -2.46038e-19)
(1.00003 -6.9732e-05 2.14177e-19)
(1.00004 -7.16333e-05 -2.23218e-19)
(1.00004 -7.35242e-05 2.34075e-19)
(1.00004 -7.54038e-05 0)
(1.00004 -7.72711e-05 -2.11399e-19)
(1.00004 -7.91255e-05 -2.4832e-20)
(1.00005 -8.09659e-05 2.3069e-19)
(1.00005 -8.27914e-05 0)
(1.00005 -8.46012e-05 1.72038e-19)
(1.00005 -8.63943e-05 -1.94478e-19)
(1.00006 -8.81698e-05 2.38166e-20)
(1.00006 -8.99267e-05 0)
(1.00006 -9.1664e-05 -1.3551e-23)
(1.00007 -9.33808e-05 -2.25757e-20)
(1.00007 -9.50761e-05 1.76618e-19)
(1.00007 -9.67488e-05 -3.48321e-19)
(1.00007 -9.8398e-05 -1.99848e-20)
(1.00008 -0.000100023 1.68744e-19)
(1.00008 -0.000101622 -1.84972e-19)
(1.00008 -0.000103194 1.83093e-19)
(1.00009 -0.000104739 0)
(1.00009 -0.000106254 -1.95448e-20)
(1.0001 -0.00010774 -1.92044e-20)
(1.0001 -0.000109195 -3.7705e-20)
(1.0001 -0.000110618 1.85163e-20)
(1.00011 -0.000112008 0)
(1.00011 -0.000113363 0)
(1.00012 -0.000114683 1.39288e-19)
(1.00012 -0.000115966 -3.09374e-19)
(1.00013 -0.000117211 1.35751e-19)
(1.00013 -0.000118418 -1.31616e-19)
(1.00014 -0.000119584 1.30764e-19)
(1.00014 -0.000120709 -1.26663e-19)
(1.00015 -0.000121791 1.10267e-19)
(1.00015 -0.000122829 1.2183e-19)
(1.00016 -0.000123822 -1.06108e-19)
(1.00016 -0.000124768 -1.4746e-20)
(1.00017 -0.000125667 1.00326e-19)
(1.00018 -0.000126516 -1.28409e-19)
(1.00018 -0.000127315 0)
(1.00019 -0.000128062 -1.36124e-20)
(1.0002 -0.000128755 -1.33309e-20)
(1.00021 -0.000129393 -1.30602e-20)
(1.00021 -0.000129974 -1.01378e-19)
(1.00022 -0.000130497 1.13556e-19)
(1.00023 -0.000130959 -1.225e-20)
(1.00024 -0.000131358 1.40671e-24)
(1.00025 -0.000131693 0)
(1.00026 -0.000131961 0)
(1.00027 -0.000132159 0)
(1.00028 -0.000132284 -1.09526e-20)
(1.00029 -0.000132333 -8.46542e-20)
(1.0003 -0.000132302 1.88094e-19)
(1.00032 -0.000132185 -1.92383e-21)
(1.00033 -0.000131977 -8.05981e-20)
(1.00034 -0.00013167 0)
(1.00036 -0.000131254 0)
(1.00037 -0.000130715 3.64023e-20)
(1.00039 -0.000130034 -3.64265e-20)
(1.00041 -0.000129184 -3.44764e-20)
(1.00043 -0.000128123 7.65755e-20)
(1.00045 -0.00012679 -6.61905e-20)
(1.00047 -0.000125087 6.83445e-20)
(1.0005 -0.000122863 -3.56482e-20)
(1.00052 -0.000119873 -3.7809e-21)
(1.00055 -0.00011572 -3.68063e-21)
(1.00058 -0.000109757 1.40548e-20)
(1.00061 -0.000100913 -1.41094e-20)
(1.00064 -8.7408e-05 -4.54444e-23)
(1.00066 -6.62777e-05 -1.62408e-20)
(1.00068 -3.25353e-05 1.14183e-20)
(1.00069 2.22447e-05 1.49133e-21)
(1.00067 0.000111715 0)
(1.00059 0.000263495 -3.299e-21)
(1.00045 0.000496082 1.54566e-21)
(1.00007 0.00100323 2.13234e-21)
(0.999985 4.25458e-05 1.17699e-20)
(0.999985 3.72419e-05 -2.39251e-21)
(0.999985 3.18984e-05 1.74384e-20)
(0.999984 2.6519e-05 -5.64715e-20)
(0.999984 2.11101e-05 -1.23011e-23)
(0.999984 1.567e-05 3.41756e-20)
(0.999985 1.01981e-05 -7.06907e-20)
(0.999985 4.69446e-06 6.47754e-20)
(0.999985 -8.40518e-07 0)
(0.999986 -6.40636e-06 6.14919e-20)
(0.999986 -1.20024e-05 -5.99777e-20)
(0.999987 -1.76278e-05 7.30624e-21)
(0.999988 -2.32819e-05 1.06956e-19)
(0.999989 -2.89637e-05 -1.11427e-19)
(0.99999 -3.46723e-05 -1.15553e-19)
(0.999991 -4.04067e-05 1.12933e-19)
(0.999992 -4.61657e-05 -6.48608e-21)
(0.999994 -5.19484e-05 0)
(0.999995 -5.77535e-05 0)
(0.999997 -6.35798e-05 -1.21255e-20)
(0.999999 -6.94261e-05 -1.18864e-20)
(1 -7.52912e-05 -1.97325e-19)
(1 -8.11736e-05 1.70642e-19)
(1 -8.7072e-05 -1.1147e-20)
(1.00001 -9.29849e-05 1.08941e-20)
(1.00001 -9.89109e-05 -1.06707e-20)
(1.00001 -0.000104849 -1.67178e-19)
(1.00001 -0.000110796 3.54722e-22)
(1.00002 -0.000116752 1.60903e-19)
(1.00002 -0.000122715 -9.84178e-21)
(1.00002 -0.000128683 0)
(1.00003 -0.000134654 -9.48107e-21)
(1.00003 -0.000140626 1.48335e-19)
(1.00003 -0.000146598 -1.27684e-19)
(1.00004 -0.000152568 1.24857e-19)
(1.00004 -0.000158534 -2.80492e-19)
(1.00005 -0.000164493 1.20627e-19)
(1.00005 -0.000170444 1.69081e-20)
(1.00006 -0.000176385 -1.65611e-20)
(1.00006 -0.000182313 0)
(1.00006 -0.000188227 -2.22988e-19)
(1.00007 -0.000194123 2.67037e-19)
(1.00008 -0.000200001 2.30287e-19)
(1.00008 -0.000205856 -2.27249e-19)
(1.00009 -0.000211688 0)
(1.00009 -0.000217494 2.32596e-19)
(1.0001 -0.00022327 -4.72311e-19)
(1.0001 -0.000229016 2.25517e-19)
(1.00011 -0.000234727 -1.38282e-20)
(1.00012 -0.000240401 0)
(1.00012 -0.000246037 1.33416e-20)
(1.00013 -0.00025163 -2.0872e-19)
(1.00014 -0.000257179 3.98448e-19)
(1.00015 -0.00026268 -3.91407e-19)
(1.00015 -0.00026813 3.72123e-19)
(1.00016 -0.000273527 -1.95637e-19)
(1.00017 -0.000278869 2.39265e-20)
(1.00018 -0.00028415 -1.40372e-19)
(1.00019 -0.00028937 2.08652e-19)
(1.0002 -0.000294525 2.0354e-19)
(1.00021 -0.000299611 -1.45974e-21)
(1.00022 -0.000304625 -1.75894e-19)
(1.00023 -0.000309565 2.14939e-20)
(1.00024 -0.000314427 -2.11534e-20)
(1.00025 -0.000319208 0)
(1.00026 -0.000323905 0)
(1.00027 -0.000328514 1.99305e-19)
(1.00028 -0.000333032 1.80532e-20)
(1.00029 -0.000337456 -1.74404e-19)
(1.0003 -0.000341782 0)
(1.00032 -0.000346007 0)
(1.00033 -0.000350128 0)
(1.00034 -0.000354141 -3.33998e-23)
(1.00036 -0.000358042 -1.57436e-19)
(1.00037 -0.000361828 1.38893e-19)
(1.00038 -0.000365497 0)
(1.0004 -0.000369043 0)
(1.00041 -0.000372463 1.4581e-19)
(1.00043 -0.000375755 -1.28745e-19)
(1.00045 -0.000378914 -1.40177e-19)
(1.00046 -0.000381937 1.23848e-19)
(1.00048 -0.000384819 3.0148e-20)
(1.0005 -0.000387558 -2.27329e-23)
(1.00052 -0.00039015 1.29362e-19)
(1.00054 -0.000392591 -1.98524e-19)
(1.00056 -0.000394877 1.12065e-19)
(1.00058 -0.000397004 1.21509e-19)
(1.0006 -0.000398968 -1.07518e-19)
(1.00062 -0.000400765 -1.2947e-19)
(1.00064 -0.000402391 1.03058e-19)
(1.00067 -0.000403842 -1.24856e-20)
(1.00069 -0.000405112 0)
(1.00072 -0.000406197 0)
(1.00074 -0.000407091 1.16837e-20)
(1.00077 -0.00040779 1.1408e-20)
(1.0008 -0.000408284 0)
(1.00083 -0.000408569 3.21366e-20)
(1.00086 -0.000408634 -4.29812e-20)
(1.00089 -0.000408469 -4.09357e-20)
(1.00093 -0.00040806 4.09245e-20)
(1.00097 -0.000407393 -2.90278e-20)
(1.001 -0.000406447 4.84937e-20)
(1.00104 -0.000405194 3.6853e-20)
(1.00109 -0.000403601 -6.36374e-20)
(1.00113 -0.00040162 5.46965e-21)
(1.00118 -0.000399188 3.06088e-20)
(1.00123 -0.000396217 -8.35436e-21)
(1.00128 -0.000392589 0)
(1.00134 -0.000388138 3.9385e-21)
(1.0014 -0.000382634 -1.49417e-20)
(1.00147 -0.000375756 1.49939e-20)
(1.00154 -0.000367061 0)
(1.00162 -0.000355929 -6.89571e-21)
(1.00171 -0.000341521 0)
(1.00183 -0.000322653 0)
(1.00197 -0.000297804 4.03778e-21)
(1.00216 -0.000264848 -7.06783e-21)
(1.00245 -0.000220959 2.76287e-21)
(1.00285 -0.0001644 -2.82213e-21)
(1.00362 -8.2622e-05 5.67579e-22)
(0.999956 7.06998e-05 -9.33649e-21)
(0.999956 6.18377e-05 0)
(0.999955 5.29122e-05 -1.20255e-21)
(0.999955 4.39294e-05 2.33816e-21)
(0.999955 3.48958e-05 0)
(0.999955 2.58095e-05 0)
(0.999955 1.66699e-05 0)
(0.999956 7.47755e-06 6.69936e-20)
(0.999956 -1.76713e-06 -1.30553e-19)
(0.999957 -1.10634e-05 6.36369e-20)
(0.999958 -2.04102e-05 3.85862e-21)
(0.999959 -2.98066e-05 0)
(0.99996 -3.92509e-05 -2.76958e-23)
(0.999962 -4.87422e-05 7.22845e-21)
(0.999963 -5.82788e-05 7.03353e-21)
(0.999965 -6.78591e-05 0)
(0.999967 -7.74814e-05 6.74134e-21)
(0.999969 -8.7144e-05 0)
(0.999972 -9.68449e-05 -1.02825e-19)
(0.999975 -0.000106582 9.43912e-20)
(0.999977 -0.000116354 1.23036e-19)
(0.999981 -0.000126158 1.20277e-19)
(0.999984 -0.000135993 -1.77062e-19)
(0.999987 -0.000145855 2.31073e-20)
(0.999991 -0.000155743 -1.1337e-20)
(0.999995 -0.000165654 0)
(0.999999 -0.000175585 0)
(1 -0.000185535 -1.70047e-19)
(1.00001 -0.0001955 1.67052e-19)
(1.00001 -0.000205478 0)
(1.00002 -0.000215466 0)
(1.00002 -0.000225461 -1.47272e-19)
(1.00003 -0.00023546 4.40148e-22)
(1.00004 -0.000245459 2.83814e-19)
(1.00004 -0.000255457 -1.30123e-19)
(1.00005 -0.000265449 -1.82557e-20)
(1.00005 -0.000275433 -1.06979e-19)
(1.00006 -0.000285405 1.23074e-19)
(1.00007 -0.000295361 0)
(1.00008 -0.000305298 0)
(1.00008 -0.000315213 -1.65713e-20)
(1.00009 -0.000325101 1.13796e-19)
(1.0001 -0.000334959 -9.62596e-20)
(1.00011 -0.000344782 -1.2539e-19)
(1.00012 -0.000354568 1.08256e-19)
(1.00013 -0.000364312 2.41827e-19)
(1.00014 -0.00037401 -2.23804e-19)
(1.00015 -0.000383658 1.46498e-20)
(1.00016 -0.000393251 2.43415e-19)
(1.00017 -0.000402785 -2.26293e-19)
(1.00018 -0.000412256 -1.38341e-20)
(1.00019 -0.000421659 1.36391e-20)
(1.0002 -0.00043099 2.67483e-20)
(1.00022 -0.000440243 -1.31146e-20)
(1.00023 -0.000449415 -1.92792e-19)
(1.00024 -0.000458501 1.41238e-20)
(1.00026 -0.000467495 1.99932e-19)
(1.00027 -0.000476394 -2.44287e-20)
(1.00028 -0.000485191 -1.19565e-20)
(1.0003 -0.000493882 -2.3574e-20)
(1.00031 -0.000502462 1.6151e-19)
(1.00033 -0.000510926 -1.82991e-19)
(1.00034 -0.000519268 -2.00626e-19)
(1.00036 -0.000527484 1.98533e-19)
(1.00038 -0.000535568 -1.71864e-19)
(1.00039 -0.000543515 1.70378e-19)
(1.00041 -0.000551319 -2.07355e-19)
(1.00043 -0.000558976 -1.88313e-20)
(1.00045 -0.000566479 3.21127e-19)
(1.00047 -0.000573824 1.80591e-20)
(1.00049 -0.000581005 -3.28916e-19)
(1.00051 -0.000588017 1.52786e-19)
(1.00053 -0.000594854 -1.10962e-19)
(1.00055 -0.000601511 1.65505e-19)
(1.00057 -0.000607982 -1.79859e-20)
(1.0006 -0.000614263 0)
(1.00062 -0.000620347 -1.3736e-19)
(1.00064 -0.000626229 -1.51149e-20)
(1.00067 -0.000631904 1.17286e-19)
(1.00069 -0.000637367 0)
(1.00072 -0.000642612 0)
(1.00075 -0.000647634 -1.56567e-20)
(1.00077 -0.000652428 1.53463e-20)
(1.0008 -0.000656989 1.04448e-19)
(1.00083 -0.000661311 -1.18932e-19)
(1.00086 -0.00066539 0)
(1.00089 -0.00066922 1.12228e-19)
(1.00093 -0.000672797 -1.11825e-19)
(1.00096 -0.000676115 -9.39565e-20)
(1.00099 -0.000679169 1.07174e-19)
(1.00103 -0.000681954 -1.0287e-19)
(1.00107 -0.000684464 2.03189e-19)
(1.0011 -0.000686695 -1.00352e-19)
(1.00114 -0.000688641 -6.01593e-20)
(1.00118 -0.000690294 4.79492e-20)
(1.00123 -0.000691648 0)
(1.00127 -0.000692697 -4.47112e-20)
(1.00132 -0.000693429 4.4672e-20)
(1.00136 -0.000693836 0)
(1.00141 -0.000693904 0)
(1.00146 -0.000693618 -1.02268e-20)
(1.00152 -0.000692958 -9.96265e-21)
(1.00157 -0.0006919 4.85109e-21)
(1.00163 -0.000690413 -3.25018e-20)
(1.00169 -0.000688457 6.4268e-20)
(1.00175 -0.000685983 -3.17751e-20)
(1.00182 -0.000682926 4.33159e-21)
(1.00188 -0.000679206 0)
(1.00196 -0.000674729 1.19542e-20)
(1.00203 -0.000669382 -3.55173e-20)
(1.00211 -0.000663046 1.17594e-20)
(1.00219 -0.000655618 0)
(1.00227 -0.000647062 1.75945e-20)
(1.00235 -0.000637496 -5.15575e-22)
(1.00243 -0.000627453 -1.20154e-20)
(1.0025 -0.000618132 0)
(1.00256 -0.000612526 1.49886e-21)
(1.00256 -0.0006162 -7.06535e-22)
(1.00252 -0.000639506 -2.0489e-21)
(1.00224 -0.000716738 1.68854e-21)
(0.999911 9.86541e-05 -3.21591e-21)
(0.999911 8.62237e-05 1.27599e-20)
(0.99991 7.37048e-05 -2.85283e-20)
(0.99991 6.11067e-05 -2.41371e-20)
(0.99991 4.84366e-05 3.75482e-20)
(0.99991 3.56917e-05 2.29196e-21)
(0.99991 2.28719e-05 7.12121e-20)
(0.999911 9.9777e-06 -6.93735e-20)
(0.999911 -2.99018e-06 -4.23942e-21)
(0.999912 -1.60308e-05 -4.13384e-21)
(0.999914 -2.91424e-05 8.04376e-21)
(0.999915 -4.2324e-05 -6.27579e-20)
(0.999917 -5.55731e-05 6.89306e-20)
(0.999919 -6.88884e-05 1.12183e-19)
(0.999921 -8.22676e-05 -7.30032e-23)
(0.999924 -9.57086e-05 -1.21454e-19)
(0.999926 -0.000109209 -6.96492e-21)
(0.999929 -0.000122766 0)
(0.999933 -0.000136378 -6.69641e-21)
(0.999936 -0.000150041 1.10958e-19)
(0.99994 -0.000163754 -2.23706e-19)
(0.999944 -0.000177512 1.87731e-19)
(0.999949 -0.000191313 -9.80922e-20)
(0.999954 -0.000205155 1.79851e-19)
(0.999959 -0.000219033 -1.76496e-19)
(0.999964 -0.000232944 0)
(0.99997 -0.000246885 1.13192e-20)
(0.999976 -0.000260852 0)
(0.999982 -0.000274842 -1.73283e-19)
(0.999989 -0.000288851 3.4019e-19)
(0.999996 -0.000302875 -1.08861e-20)
(1 -0.000316909 -1.74074e-19)
(1.00001 -0.000330951 -1.60247e-19)
(1.00002 -0.000344995 4.73038e-22)
(1.00003 -0.000359037 1.35452e-19)
(1.00004 -0.000373072 9.40527e-21)
(1.00005 -0.000387097 1.29961e-19)
(1.00006 -0.000401106 -3.10364e-19)
(1.00007 -0.000415095 2.86692e-19)
(1.00008 -0.000429058 -1.41004e-19)
(1.00009 -0.00044299 0)
(1.0001 -0.000456887 1.70088e-20)
(1.00011 -0.000470744 -1.66173e-20)
(1.00012 -0.000484553 0)
(1.00013 -0.000498311 1.60269e-20)
(1.00015 -0.000512012 1.41697e-19)
(1.00016 -0.000525649 -1.39727e-19)
(1.00017 -0.000539218 -1.51866e-20)
(1.00019 -0.000552711 0)
(1.0002 -0.000566124 0)
(1.00022 -0.000579449 0)
(1.00023 -0.000592681 -2.40176e-19)
(1.00025 -0.000605813 -1.24726e-20)
(1.00027 -0.000618838 2.1954e-19)
(1.00028 -0.000631751 -1.34084e-20)
(1.0003 -0.000644545 -1.31726e-20)
(1.00032 -0.000657212 0)
(1.00034 -0.000669746 2.03049e-19)
(1.00036 -0.000682141 -4.12928e-19)
(1.00038 -0.000694388 1.85143e-19)
(1.0004 -0.000706481 3.62122e-20)
(1.00042 -0.000718414 -1.77086e-19)
(1.00044 -0.000730178 3.96087e-19)
(1.00046 -0.000741766 -1.64887e-21)
(1.00048 -0.000753172 -1.58125e-19)
(1.00051 -0.000764387 0)
(1.00053 -0.000775405 4.33745e-20)
(1.00056 -0.000786218 2.12493e-20)
(1.00058 -0.000796818 1.6635e-19)
(1.00061 -0.000807199 -1.85547e-19)
(1.00063 -0.000817352 2.01117e-20)
(1.00066 -0.00082727 1.98249e-20)
(1.00069 -0.000836946 -1.93783e-20)
(1.00072 -0.000846371 0)
(1.00075 -0.00085554 1.86033e-19)
(1.00078 -0.000864443 -1.86866e-21)
(1.00081 -0.000873074 -1.44904e-19)
(1.00084 -0.000881425 1.40262e-19)
(1.00087 -0.000889489 -2.59708e-19)
(1.00091 -0.000897259 1.36779e-19)
(1.00094 -0.000904727 -1.32179e-19)
(1.00098 -0.000911886 1.96801e-21)
(1.00101 -0.00091873 1.28921e-19)
(1.00105 -0.000925251 0)
(1.00109 -0.000931441 -1.5331e-20)
(1.00113 -0.000937296 0)
(1.00117 -0.000942806 -1.47486e-20)
(1.00121 -0.000947967 -1.14293e-19)
(1.00125 -0.00095277 1.28043e-19)
(1.0013 -0.00095721 1.09402e-19)
(1.00134 -0.00096128 -1.09094e-19)
(1.00139 -0.000964973 5.22986e-20)
(1.00144 -0.000968283 -1.39931e-20)
(1.00149 -0.000971201 -3.83783e-20)
(1.00154 -0.000973722 4.87683e-20)
(1.00159 -0.000975838 1.09605e-20)
(1.00164 -0.000977539 -1.09484e-21)
(1.0017 -0.000978819 -4.64185e-20)
(1.00176 -0.000979666 0)
(1.00182 -0.000980069 4.30538e-20)
(1.00188 -0.000980017 -1.12265e-21)
(1.00194 -0.000979494 -4.19467e-20)
(1.00201 -0.000978483 -5.03495e-21)
(1.00208 -0.000976967 -4.89807e-21)
(1.00215 -0.000974922 9.51901e-21)
(1.00222 -0.000972324 0)
(1.0023 -0.000969143 0)
(1.00238 -0.000965347 0)
(1.00246 -0.000960901 4.2203e-21)
(1.00255 -0.000955768 1.48059e-23)
(1.00264 -0.000949908 1.74217e-23)
(1.00273 -0.000943275 -1.48451e-20)
(1.00284 -0.000935803 1.67347e-20)
(1.00295 -0.000927381 0)
(1.00307 -0.000917748 -3.3815e-21)
(1.00322 -0.000906386 1.60736e-21)
(1.00339 -0.000892004 -5.53686e-21)
(1.00361 -0.000871864 5.57197e-21)
(1.00388 -0.000841361 3.53611e-22)
(1.00435 -0.000780224 0)
(0.999852 0.000126467 0)
(0.999851 0.000110437 1.32472e-21)
(0.99985 9.42947e-05 0)
(0.99985 7.80551e-05 4.99716e-21)
(0.99985 6.17252e-05 -3.89028e-20)
(0.99985 4.53009e-05 3.55124e-20)
(0.99985 2.87816e-05 -3.69043e-20)
(0.999851 1.21676e-05 1.03382e-19)
(0.999852 -4.54054e-06 -6.57612e-20)
(0.999853 -2.1342e-05 7.26631e-20)
(0.999855 -3.82344e-05 -4.17422e-21)
(0.999856 -5.5217e-05 -2.07679e-23)
(0.999859 -7.22865e-05 -6.36302e-20)
(0.999861 -8.94414e-05 -7.79728e-21)
(0.999864 -0.000106679 0)
(0.999867 -0.000123996 1.18601e-19)
(0.99987 -0.00014139 -1.16098e-19)
(0.999874 -0.000158858 1.13442e-19)
(0.999878 -0.000176397 6.80115e-21)
(0.999883 -0.000194003 -1.08712e-19)
(0.999888 -0.000211672 1.12901e-19)
(0.999893 -0.000229402 -1.04186e-19)
(0.999899 -0.000247187 0)
(0.999905 -0.000265025 -1.253e-20)
(0.999911 -0.000282911 9.77434e-20)
(0.999918 -0.000300841 8.35591e-20)
(0.999925 -0.000318811 -1.20942e-20)
(0.999933 -0.000336815 1.11555e-20)
(0.999941 -0.000354849 -1.92123e-19)
(0.999949 -0.000372909 0)
(0.999958 -0.000390989 1.08237e-20)
(0.999968 -0.000409084 1.06168e-20)
(0.999977 -0.00042719 0)
(0.999988 -0.000445299 0)
(0.999998 -0.000463409 1.00937e-20)
(1.00001 -0.00048151 1.67482e-19)
(1.00002 -0.0004996 -1.02607e-20)
(1.00003 -0.00051767 -1.33444e-19)
(1.00005 -0.000535716 1.67803e-19)
(1.00006 -0.00055373 -1.89766e-20)
(1.00007 -0.000571707 -1.26205e-19)
(1.00009 -0.000589639 -1.7623e-20)
(1.0001 -0.00060752 0)
(1.00012 -0.000625343 -1.18923e-19)
(1.00013 -0.000643101 6.46012e-22)
(1.00015 -0.000660787 1.1546e-19)
(1.00016 -0.000678392 -1.28856e-19)
(1.00018 -0.000695911 1.11325e-19)
(1.0002 -0.000713334 0)
(1.00022 -0.000730655 1.06744e-19)
(1.00024 -0.000747865 -7.20032e-22)
(1.00026 -0.000764956 -1.18551e-19)
(1.00028 -0.000781921 1.45647e-20)
(1.0003 -0.00079875 -1.13687e-19)
(1.00032 -0.000815435 1.12443e-19)
(1.00034 -0.000831969 0)
(1.00036 -0.000848341 2.15516e-19)
(1.00039 -0.000864543 -2.26624e-19)
(1.00041 -0.000880567 -1.30914e-20)
(1.00044 -0.000896402 1.27843e-20)
(1.00046 -0.000912041 -1.25585e-20)
(1.00049 -0.000927474 7.18909e-23)
(1.00051 -0.000942692 -1.21874e-20)
(1.00054 -0.000957685 1.19699e-20)
(1.00057 -0.000972443 -2.33789e-20)
(1.0006 -0.000986958 1.8324e-19)
(1.00063 -0.00100122 -2.04254e-19)
(1.00066 -0.00101522 -1.11313e-20)
(1.00069 -0.00102895 0)
(1.00072 -0.00104239 -1.70224e-19)
(1.00076 -0.00105554 1.47882e-19)
(1.00079 -0.00106839 -2.05691e-20)
(1.00082 -0.00108093 0)
(1.00086 -0.00109315 1.57886e-19)
(1.0009 -0.00110504 -3.31181e-19)
(1.00093 -0.00111659 1.53906e-19)
(1.00097 -0.00112778 0)
(1.00101 -0.00113862 0)
(1.00105 -0.00114909 -1.43296e-19)
(1.00109 -0.00115918 2.65255e-19)
(1.00113 -0.00116889 -1.39738e-19)
(1.00118 -0.00117819 1.70363e-20)
(1.00122 -0.00118709 0)
(1.00126 -0.00119558 0)
(1.00131 -0.00120364 0)
(1.00136 -0.00121127 1.56887e-20)
(1.00141 -0.00121846 1.53063e-20)
(1.00146 -0.0012252 -1.50344e-20)
(1.00151 -0.00123149 4.35311e-20)
(1.00156 -0.0012373 -5.80177e-20)
(1.00161 -0.00124265 0)
(1.00167 -0.00124751 -1.37603e-20)
(1.00173 -0.00125189 6.65756e-20)
(1.00178 -0.00125576 -5.30241e-20)
(1.00184 -0.00125914 -1.28319e-20)
(1.00191 -0.00126201 -6.19921e-20)
(1.00197 -0.00126435 5.55418e-20)
(1.00203 -0.00126618 -4.70822e-20)
(1.0021 -0.00126747 4.12425e-20)
(1.00217 -0.00126822 0)
(1.00224 -0.00126843 4.90471e-20)
(1.00231 -0.00126809 -4.35457e-20)
(1.00238 -0.00126719 0)
(1.00246 -0.00126573 0)
(1.00254 -0.0012637 -4.9375e-21)
(1.00262 -0.00126111 -3.7726e-20)
(1.00271 -0.00125796 3.78016e-20)
(1.00279 -0.00125427 -1.77149e-20)
(1.00288 -0.00125005 6.20313e-22)
(1.00297 -0.00124536 2.14203e-20)
(1.00307 -0.00124028 4.0812e-21)
(1.00316 -0.00123496 0)
(1.00326 -0.00122963 -1.89558e-21)
(1.00336 -0.0012247 -7.17737e-21)
(1.00346 -0.00122088 8.96011e-21)
(1.00355 -0.00121936 -3.34023e-21)
(1.00363 -0.00122228 0)
(1.00369 -0.00123332 0)
(1.00371 -0.00125814 0)
(1.0036 -0.00131528 0)
(0.999778 0.000154155 -2.40987e-21)
(0.999777 0.000134493 1.37064e-21)
(0.999776 0.000114693 1.3357e-21)
(0.999775 9.4779e-05 -2.32914e-20)
(0.999775 7.47579e-05 2.26942e-20)
(0.999775 5.46238e-05 2.46687e-21)
(0.999776 3.43758e-05 -2.40413e-21)
(0.999776 1.40134e-05 -7.00146e-20)
(0.999777 -6.46299e-06 7.2819e-20)
(0.999779 -2.70528e-05 0)
(0.999781 -4.77534e-05 4.35378e-21)
(0.999783 -6.85643e-05 -6.34417e-20)
(0.999785 -8.94814e-05 6.614e-20)
(0.999788 -0.000110503 1.61598e-20)
(0.999792 -0.000131627 0)
(0.999795 -0.000152848 -6.27482e-23)
(0.999799 -0.000174164 0)
(0.999804 -0.000195571 0)
(0.999809 -0.000217066 1.22748e-19)
(0.999814 -0.000238643 -1.06061e-19)
(0.99982 -0.0002603 -6.95121e-21)
(0.999827 -0.000282031 6.80649e-21)
(0.999833 -0.000303832 0)
(0.999841 -0.000325698 1.29556e-20)
(0.999848 -0.000347624 1.01822e-19)
(0.999856 -0.000369605 -8.7531e-20)
(0.999865 -0.000391636 0)
(0.999874 -0.000413711 -1.19548e-20)
(0.999884 -0.000435824 1.99718e-19)
(0.999894 -0.00045797 -1.84806e-19)
(0.999904 -0.000480142 -1.13663e-20)
(0.999916 -0.000502334 -1.11501e-20)
(0.999927 -0.000524541 1.73996e-19)
(0.999939 -0.000546754 -1.71238e-19)
(0.999952 -0.000568968 -1.77976e-19)
(0.999966 -0.000591174 1.54619e-19)
(0.999979 -0.000613368 1.00682e-20)
(0.999994 -0.00063554 9.96226e-21)
(1.00001 -0.000657683 -1.94075e-20)
(1.00002 -0.000679789 9.45252e-21)
(1.00004 -0.000701852 -9.28207e-21)
(1.00006 -0.000723861 0)
(1.00008 -0.00074581 0)
(1.00009 -0.000767689 -1.77238e-20)
(1.00011 -0.000789491 1.21858e-19)
(1.00013 -0.000811205 -1.37604e-19)
(1.00015 -0.000832823 0)
(1.00017 -0.000854337 1.48585e-19)
(1.00019 -0.000875735 -2.60214e-19)
(1.00022 -0.00089701 2.71554e-19)
(1.00024 -0.00091815 -1.25944e-19)
(1.00026 -0.000939147 0)
(1.00029 -0.00095999 -3.03119e-20)
(1.00031 -0.000980668 0)
(1.00034 -0.00100117 -1.16567e-19)
(1.00036 -0.00102149 -1.36069e-20)
(1.00039 -0.00104161 1.13307e-19)
(1.00042 -0.00106153 1.38192e-20)
(1.00045 -0.00108123 -9.49482e-20)
(1.00047 -0.0011007 9.40257e-20)
(1.0005 -0.00111993 -1.17889e-19)
(1.00054 -0.00113891 -1.19829e-20)
(1.00057 -0.00115762 2.15504e-19)
(1.0006 -0.00117607 -2.11661e-19)
(1.00063 -0.00119422 9.83e-20)
(1.00067 -0.00121208 0)
(1.0007 -0.00122963 0)
(1.00074 -0.00124685 1.95884e-19)
(1.00078 -0.00126375 -1.8288e-19)
(1.00081 -0.0012803 1.12024e-20)
(1.00085 -0.00129649 3.28494e-20)
(1.00089 -0.00131231 1.07923e-20)
(1.00093 -0.00132775 1.57284e-19)
(1.00097 -0.00134279 -1.77122e-19)
(1.00102 -0.00135744 0)
(1.00106 -0.00137166 -1.58486e-19)
(1.00111 -0.00138546 2.15604e-19)
(1.00115 -0.00139881 -7.72538e-20)
(1.0012 -0.00141171 -1.88672e-20)
(1.00125 -0.00142415 1.83989e-20)
(1.00129 -0.00143611 0)
(1.00134 -0.00144759 5.26485e-20)
(1.0014 -0.00145857 -6.99908e-20)
(1.00145 -0.00146904 -1.70524e-20)
(1.0015 -0.00147899 6.60776e-20)
(1.00156 -0.00148841 -1.74016e-20)
(1.00161 -0.00149729 -6.44424e-20)
(1.00167 -0.00150561 1.56023e-20)
(1.00173 -0.00151338 0)
(1.00179 -0.00152058 -1.4989e-20)
(1.00185 -0.0015272 7.32781e-21)
(1.00191 -0.00153324 7.11821e-21)
(1.00198 -0.00153867 0)
(1.00204 -0.00154351 -1.36361e-20)
(1.00211 -0.00154773 1.33175e-20)
(1.00218 -0.00155134 6.51401e-21)
(1.00225 -0.00155432 -6.34354e-21)
(1.00232 -0.00155668 0)
(1.0024 -0.0015584 6.03251e-21)
(1.00247 -0.00155949 5.8832e-21)
(1.00255 -0.00155993 -1.1453e-20)
(1.00263 -0.00155974 0)
(1.00271 -0.00155892 0)
(1.00279 -0.00155746 -5.26638e-21)
(1.00288 -0.00155538 -4.03003e-20)
(1.00297 -0.00155269 4.03671e-20)
(1.00306 -0.00154941 4.81024e-21)
(1.00315 -0.00154557 -1.36746e-20)
(1.00325 -0.00154121 1.38755e-20)
(1.00334 -0.00153637 1.71204e-20)
(1.00345 -0.00153111 1.43185e-21)
(1.00355 -0.00152549 -1.65724e-20)
(1.00366 -0.00151956 0)
(1.00377 -0.00151333 -5.42826e-21)
(1.00389 -0.00150668 7.34034e-21)
(1.00402 -0.00149928 -6.57312e-21)
(1.00417 -0.00149018 3.5429e-21)
(1.00434 -0.00147742 3.10353e-21)
(1.00454 -0.0014578 -1.25926e-21)
(1.00483 -0.00141826 1.15708e-21)
(0.999689 0.000181735 6.07091e-21)
(0.999688 0.000158401 0)
(0.999687 0.000134901 -2.75958e-21)
(0.999686 0.000111273 0)
(0.999685 8.75204e-05 -2.60548e-21)
(0.999685 6.36366e-05 -2.53921e-21)
(0.999686 3.96201e-05 2.47552e-21)
(0.999687 1.54698e-05 0)
(0.999688 -8.81428e-06 0)
(0.999689 -3.32321e-05 7.38723e-20)
(0.999691 -5.77804e-05 -7.20909e-20)
(0.999694 -8.24593e-05 -4.38374e-21)
(0.999697 -0.000107264 6.44778e-20)
(0.9997 -0.000132193 -1.42873e-19)
(0.999704 -0.000157243 4.17976e-23)
(0.999708 -0.000182409 -5.62119e-20)
(0.999713 -0.000207688 1.17909e-19)
(0.999718 -0.000233076 0)
(0.999724 -0.000258568 -7.49372e-21)
(0.99973 -0.00028416 -1.47414e-20)
(0.999737 -0.000309846 1.44335e-20)
(0.999744 -0.000335622 -7.03403e-21)
(0.999752 -0.000361482 0)
(0.99976 -0.000387421 1.08381e-19)
(0.999769 -0.000413432 -9.9715e-20)
(0.999779 -0.000439509 0)
(0.999789 -0.000465648 1.28344e-20)
(0.999799 -0.000491839 1.25839e-20)
(0.99981 -0.000518078 9.80918e-20)
(0.999822 -0.000544358 9.59643e-20)
(0.999834 -0.00057067 -3.6618e-19)
(0.999847 -0.000597007 4.00741e-22)
(0.999861 -0.000623364 1.93604e-19)
(0.999875 -0.000649729 0)
(0.99989 -0.000676098 0)
(0.999905 -0.00070246 1.93193e-19)
(0.999921 -0.000728809 -5.9203e-22)
(0.999938 -0.000755133 -1.76357e-19)
(0.999956 -0.000781425 0)
(0.999974 -0.000807676 -1.49521e-19)
(0.999992 -0.000833876 1.47469e-19)
(1.00001 -0.000860016 1.6344e-19)
(1.00003 -0.000886085 -3.12188e-19)
(1.00005 -0.000912074 1.48993e-19)
(1.00007 -0.000937972 1.81767e-20)
(1.0001 -0.00096377 -1.61071e-19)
(1.00012 -0.000989454 7.40504e-22)
(1.00014 -0.00101502 1.56158e-19)
(1.00017 -0.00104044 0)
(1.00019 -0.00106573 1.33174e-19)
(1.00022 -0.00109085 -1.31615e-19)
(1.00025 -0.00111581 -1.28508e-19)
(1.00028 -0.00114059 1.65908e-20)
(1.0003 -0.00116517 1.24842e-19)
(1.00033 -0.00118954 0)
(1.00036 -0.0012137 1.49539e-20)
(1.0004 -0.00123763 -1.48172e-20)
(1.00043 -0.00126132 1.45557e-20)
(1.00046 -0.00128474 -9.91078e-20)
(1.00049 -0.0013079 1.48376e-20)
(1.00053 -0.00133077 1.10208e-19)
(1.00056 -0.00135335 0)
(1.0006 -0.00137561 0)
(1.00064 -0.00139755 0)
(1.00068 -0.00141916 0)
(1.00072 -0.0014404 0)
(1.00076 -0.00146129 -8.57029e-20)
(1.0008 -0.00148179 9.72843e-20)
(1.00084 -0.00150189 -1.19272e-20)
(1.00088 -0.00152159 -1.16205e-20)
(1.00093 -0.00154086 -1.13936e-19)
(1.00097 -0.00155969 7.91837e-20)
(1.00102 -0.00157807 2.20535e-20)
(1.00107 -0.00159598 2.1639e-20)
(1.00112 -0.00161342 0)
(1.00117 -0.00163035 -8.27252e-20)
(1.00122 -0.00164678 1.02575e-19)
(1.00127 -0.00166268 -8.95819e-20)
(1.00132 -0.00167804 9.86589e-20)
(1.00138 -0.00169285 0)
(1.00143 -0.00170709 -7.488e-20)
(1.00149 -0.00172076 7.4506e-20)
(1.00155 -0.00173383 0)
(1.00161 -0.0017463 -4.37787e-20)
(1.00167 -0.00175814 1.38961e-19)
(1.00173 -0.00176936 -1.18166e-21)
(1.00179 -0.00177993 -7.55229e-20)
(1.00186 -0.00178985 0)
(1.00192 -0.0017991 0)
(1.00199 -0.00180768 -4.617e-20)
(1.00206 -0.00181556 5.39482e-20)
(1.00213 -0.00182275 -5.15095e-20)
(1.0022 -0.00182923 5.88094e-20)
(1.00227 -0.001835 -6.33192e-20)
(1.00234 -0.00184004 5.61078e-20)
(1.00242 -0.00184436 -6.76024e-21)
(1.0025 -0.00184794 5.21713e-20)
(1.00258 -0.00185078 -1.02971e-19)
(1.00266 -0.00185287 5.08161e-20)
(1.00274 -0.00185423 5.14936e-24)
(1.00282 -0.00185484 5.94449e-21)
(1.00291 -0.00185471 5.14029e-20)
(1.003 -0.00185384 -5.1271e-20)
(1.00309 -0.00185226 -1.60572e-20)
(1.00318 -0.00184996 2.68515e-20)
(1.00327 -0.00184698 0)
(1.00337 -0.00184334 -1.14476e-23)
(1.00347 -0.00183907 -4.83519e-21)
(1.00357 -0.00183422 2.30274e-20)
(1.00367 -0.00182886 -3.61263e-20)
(1.00377 -0.00182307 6.77897e-22)
(1.00388 -0.00181696 1.71611e-20)
(1.00398 -0.0018107 0)
(1.00409 -0.00180454 5.68484e-21)
(1.0042 -0.00179887 -7.66959e-21)
(1.0043 -0.00179431 -5.28911e-21)
(1.0044 -0.00179196 3.69632e-21)
(1.00448 -0.00179368 4.25726e-21)
(1.00455 -0.0018025 -1.25904e-21)
(1.00455 -0.00182754 1.62208e-21)
(0.999585 0.000209227 -2.21887e-21)
(0.999583 0.000182167 -1.02972e-20)
(0.999582 0.000154915 1.43183e-20)
(0.999581 0.000127519 1.95192e-20)
(0.99958 9.99843e-05 -2.17511e-20)
(0.99958 7.23001e-05 0)
(0.999581 4.4465e-05 0)
(0.999582 1.6477e-05 0)
(0.999583 -1.16646e-05 7.38247e-20)
(0.999585 -3.99601e-05 -9.80749e-24)
(0.999587 -6.8406e-05 -7.97874e-20)
(0.99959 -9.7003e-05 7.33603e-20)
(0.999593 -0.000125745 -1.3894e-19)
(0.999597 -0.000154632 -4.36941e-21)
(0.999601 -0.000183659 6.85511e-20)
(0.999606 -0.000212821 -6.70006e-20)
(0.999611 -0.000242115 7.37574e-20)
(0.999617 -0.000271536 1.28275e-19)
(0.999624 -0.000301078 -1.36194e-22)
(0.999631 -0.000330737 -1.15416e-19)
(0.999638 -0.000360506 -7.49067e-21)
(0.999646 -0.000390381 1.17891e-19)
(0.999655 -0.000420354 -1.15672e-19)
(0.999665 -0.00045042 7.12126e-21)
(0.999675 -0.000480571 -1.17809e-19)
(0.999685 -0.0005108 1.08923e-19)
(0.999697 -0.000541102 -1.32709e-20)
(0.999709 -0.000571468 -1.30137e-20)
(0.999721 -0.000601889 0)
(0.999734 -0.00063236 -1.00525e-19)
(0.999748 -0.00066287 8.64559e-20)
(0.999763 -0.000693413 2.42343e-20)
(0.999778 -0.000723978 -1.18266e-20)
(0.999794 -0.000754556 -1.86328e-19)
(0.999811 -0.000785141 1.83462e-19)
(0.999829 -0.000815719 -1.11836e-20)
(0.999847 -0.000846283 -1.10973e-20)
(0.999866 -0.000876821 0)
(0.999886 -0.000907326 1.06981e-20)