/*--------------------------------*- C++ -*----------------------------------*\
  =========                 |
  \\      /  F ield         | OpenFOAM: The Open Source CFD Toolbox
   \\    /   O peration     | Website:  https://openfoam.org
    \\  /    A nd           | Version:  6
     \\/     M anipulation  |
\*---------------------------------------------------------------------------*/
FoamFile
{
    version     2.0;
    format      ascii;
    class       volScalarField;
    location    "0";
    object      e;
}
// * * * * * * * * * * * * * * * * * * * * * * * * * * * * * * * * * * * * * //

dimensions      [0 2 -2 0 0 0 0];

internalField   nonuniform List<scalar> 
16000
(
204685.14
203988.42
203329.8
202797.7
202376.18
202041.89
201786.27
201628.44
201601.78
201725.68
201959.82
202267.37
202649.5
203129.5
203730.34
204438.63
205233.81
206119.25
207108.41
208217.54
209451.44
210844.43
212513.1
214496.76
216888.2
219958.78
223657.79
227665.56
232711.96
234925.98
196269
195504.81
194815.35
194239.41
193779.28
193416.36
193141.15
192969.16
192957.4
193146.63
193477.32
193926.02
194517.47
195274.74
196163.82
197132.71
198247.06
199504.39
200934.34
202574.8
204490.65
206764.3
209479.87
212700.24
216448.1
220669.4
225266.28
229687.41
233290.46
235129.19
199735.06
199099.51
198535.22
198112.46
197792.67
197539.56
197357.86
197301.63
197427.51
197702.16
198076.7
198512.46
199046.08
199692.9
200479.2
201383.79
202399.4
203540.53
204829.73
206304.13
208025.84
210077.59
212539.97
215465.54
218770.28
222759.59
226659.43
230299.09
233076.28
234543.34
197870.98
197142.39
196505.5
195994.08
195612.57
195358.11
195173.09
195057.65
195254.69
195520.9
195932.02
196441.23
197067.91
197838.88
198771.1
199848.99
201068.52
202448.62
204015.6
205809.53
207888.77
210321.89
213154.54
216386.52
219999.41
223776.51
227406.59
230525.59
232733.77
233799.1
199132.2
198481.9
197907.43
197455.86
197125.27
196908.01
196761.87
196770.71
196914.32
197209.99
197621.01
198126.49
198743.55
199500.04
200408.95
201457.22
202645.9
203996.15
205538.14
207315.73
209388.53
211823.23
214647.83
217783.75
221330.62
224780.93
227969.8
230531.35
232232.56
233026.07
198551.64
197862.23
197262.92
196790.13
196444.69
196213.32
196088.22
196007.64
196292.88
196607.31
197077.43
197648.07
198348.31
199204.35
200225.26
201398.12
202726.78
204232.52
205945.18
207905.53
210161.92
212760.01
215696.62
218923.43
222244.82
225421.94
228192.71
230306.85
231643.6
232248.43
199082.68
198434.2
197868.4
197427.84
197110.86
196904.14
196801.02
196826.8
197014.41
197364.98
197834.65
198412.91
199121.43
199988.62
201021.27
202210.27
203563.72
205105.3
206867.43
208890.84
211216.13
213876.19
216798.1
219931.95
223034.65
225887.36
228252.16
229972
231016.51
231484.86
198927.32
198267.87
197699.33
197259.08
196947.47
196749.63
196640.87
196727.03
196945.28
197339.51
197856.82
198492.49
199269.48
200214.15
201329.58
202608.02
204059.14
205705.82
207578.34
209710.95
212127.57
214822.9
217744.29
220743.54
223609.86
226134.84
228139.01
229542.85
230371.36
230742.89
199207.27
198571.63
198024.04
197604.51
197312.28
197133.74
197060.39
197124.76
197367.59
197775.88
198309.65
198966.5
199771.63
200750.02
201903.53
203227.43
204733.43
206444.04
208386.57
210586.55
213051.95
215752.07
218596.81
221421.82
224028.61
226236.51
227921.02
229065.37
229726.48
230026.49
199210.24
198576.36
198036.02
197626.63
197349.35
197193.11
197089.32
197250.72
197516.08
197965.65
198540.71
199247.5
200110.56
201152.05
202371.57
203766.1
205347.7
207136.77
209155.31
211417.18
213911.45
216583.52
219319.08
221947.79
224290.76
226204.71
227617
228554.95
229089.31
229336.63
199402.39
198784.24
198259.05
197865.05
197601.88
197454.49
197419.52
197534.29
197836.99
198304.79
198906.52
199646.07
200549.98
201637.44
202907.1
204357.54
206000.39
207852.63
209928.81
212229.12
214722.69
217332.04
219927.01
222343.1
224427.7
226075.61
227257.55
228029.81
228465.9
228673.44
199481.06
198872.66
198360.86
197982.51
197737.21
197608.45
197597
197743.82
198080.1
198582.51
199223
200008.53
200964.91
202107.95
203435.09
204945.81
206650.18
208560.44
210681.98
213000.26
215465.7
217983.39
220416.77
222615.09
224455.13
225868.17
226858.41
227498.78
227858.78
228036.17
199636.52
199041.33
198543.76
198180.47
197950.08
197835.94
197843.48
198015.51
198378.33
198908.15
199581.1
200406.66
201409.64
202602.48
203981.68
205546.68
207304.72
209261.74
211412.29
213726.47
216137.91
218539.98
220798.06
222780.76
224394.86
225603.47
226434.74
226969.43
227269.69
227423.86
199751.57
199169.23
198687.41
198341.51
198129.31
198034.49
198067.04
198270.35
198665.59
199228.62
199939.58
200809.89
201862.43
203106.18
204536.62
206152.44
207957.03
209948.86
212110.96
214398.88
216733.03
219001.39
221077.85
222853.33
224262.97
225296
225996.15
226446.08
226699.17
226835.39
199899.95
199331.28
198864.93
198535.33
198339.27
198261.79
198317.43
198549.28
198973.98
199567.95
200315.22
201228.63
202328.49
203620.32
205098.28
206759.25
208601.55
210615.15
212771.17
215012.29
217249.84
219372.27
221266.83
222847.62
224075.03
224958.38
225550.42
225931.91
226147.4
226269.6
200035.76
199481.83
199032.8
198721.46
198543.87
198486.95
198569.34
198832.72
199289.36
199916.62
200702.21
201659.64
202806.09
204143.68
205665.03
207364.33
209234.01
211254.95
213387
215562.51
217688.18
219657.9
221375.16
222776.45
223843.47
224599.97
225102.85
225428.86
225614.18
225725.36
200187.86
199648.97
199217.09
198923.39
198763.36
198726.63
198835.44
199129.46
199617.14
200277.29
201100.92
202101.42
203292.38
204672.45
206232.22
207962.27
209848.37
211862.19
213953.54
216047.47
218050.39
219865.45
221413.63
222651.85
223578.94
224228.27
224657.45
224938.21
225099.13
225201.61
200338.75
199816.19
199402.93
199128.18
198987.27
198972.86
199110.16
199436.06
199955.67
200649.52
201511.49
202554.09
203786.96
205205.4
206797.47
208549.43
210440
212432.09
214467.31
216466.7
218340.12
220002.52
221392.33
222484.19
223290.02
223848.95
224217.06
224460.69
224601.78
224697.33
200499.38
199993.51
199599.03
199343.08
199221.27
199229.68
199395.79
199753.34
200304.65
201032.14
201931.97
203014.98
204286.64
205738.75
207356.41
209120.92
211003.9
212960.42
214926.15
216821.35
218562.31
220077.19
221320.78
222282.51
222983.74
223466.39
223783.74
223996.74
224121.58
224211.59
200663.44
200175.39
199800.73
199564.43
199462.84
199495.57
199691.58
200081.14
200664.24
201425.35
202362.19
203483.3
204789.81
206270.06
207905.68
209672.71
211536
213444.13
215329.28
217113.8
218722.62
220097.37
221207.57
222054.43
222665.68
223083.93
223358.92
223546.53
223657.98
223743.53
200834.9
200365.22
200010.71
199794.22
199713.34
199771.18
199997.45
200418.79
201033.41
201827.69
202800.2
203956.55
205293.5
206795.8
208441.28
210200.66
212032.68
213881.14
215677.14
217347.53
218827.14
220070.69
221060.36
221806.36
222340.33
222704.12
222943.63
223110.07
223210.43
223292.36
201011.7
200561.31
200227.68
200031.61
199972.37
200056.36
200313.33
200766.26
201411.99
202238.65
203244.91
204432.99
205795.27
207312.89
208959.68
210701.24
212491.24
214270.48
215971.26
217526.7
218882.11
220004.26
220885.84
221543.62
222011.25
222328.88
222538.59
222687.28
222778.39
222857.35
201195.24
200764.73
200452.35
200277.06
200240.13
200350.97
200638.71
201122.73
201798.92
202656.78
203694.35
204910.11
206292.17
207818
209457.42
211171.39
212909.75
214612.18
216214.06
217655.98
218893.65
219904.56
220689.78
221270.6
221681.27
221959.69
222144.25
222277.98
222361.34
222437.84
201384.93
200975.02
200684.41
200530.41
200516.59
200654.92
200973.31
201487.78
202193.47
203080.9
204146.77
205385.62
206781.43
208308.04
209931.42
211608.67
213287.14
214907.14
216408.61
217740.26
218867.63
219777.4
220477.11
220990.9
221352.61
221597.64
221760.91
221881.96
221958.79
222033.22
201581.24
201192.48
200923.98
200791.69
200801.63
200967.81
201316.49
201860.51
202594.47
203509.37
204600.03
205856.96
207260.16
208780.02
210379.03
212011.31
213623.18
215157.04
216558.49
217784.49
218809.53
219627.93
220252
220707.45
221027.03
221243.54
221388.72
221498.98
221570.27
221642.93
201784.05
201416.97
201170.95
201060.83
201095.13
201289.34
201667.69
202240.11
203000.76
203940.58
205052.02
206321.62
207725.64
209231.29
210798.09
212378.25
213918.36
215364.17
216667.57
217793.5
218724.38
219460.64
220017.97
220422.64
220705.9
220898.02
221027.78
221128.8
221195.35
221266.46
201993.49
201648.52
201425.25
201337.7
201396.8
201618.94
202026.1
202625.55
203410.93
204372.66
205500.47
206777.07
208175.3
209659.51
211187
212709.07
214173.82
215531.27
216739.83
217771.92
218616.71
219279.42
219777.95
220138.41
220390.33
220561.5
220678.07
220771.13
220833.6
220903.34
202209.53
201887.01
201686.74
201622.12
201706.31
201956.04
202390.88
203015.69
203823.51
204803.7
205943.14
207220.91
208606.79
210062.77
211544.68
213003.99
214391.26
215661.4
216779.27
217724.06
218490.59
219087.63
219534.38
219856.34
220081.16
220234.3
220339.54
220425.71
220484.64
220553.13
202432.15
202132.33
201955.24
201913.82
202023.19
202299.91
202761.05
203409.27
204236.84
205231.71
206377.79
207650.85
209018.06
210439.61
211870.67
213263.78
214572.8
215757.78
216789.79
217653.93
218349.59
218888.12
219289.32
219577.71
219779.04
219916.6
220012.09
220092.25
220148.09
220215.41
202661.28
202384.31
202230.53
202212.48
202346.9
202649.72
203135.53
203804.93
204649.24
205654.68
206802.25
208064.82
209407.41
210789.03
212164.97
213489.69
214720.85
215823.72
216775.09
217565.14
218196.85
218683.34
219044.46
219303.53
219484.45
219608.54
219695.6
219770.51
219823.62
219889.82
202896.8
202642.75
202512.3
202517.66
202676.77
203004.54
203513.12
204201.21
205058.94
206070.61
207214.51
208461
209773.5
211110.48
212428.1
213683.36
214838.03
215862.49
216738.64
217460.94
218035.11
218475.36
218801.18
219034.6
219197.77
219310.19
219389.94
219460.21
219510.89
219576
203138.54
202907.37
202800.21
202828.86
203012.04
203363.35
203892.59
204596.58
205464.15
206477.58
207612.7
208837.86
210115.38
211403.87
212660.98
213846.72
214927.09
215877.27
216683.68
217344.26
217866.74
218265.9
218560.62
218771.59
218919.28
219021.55
219094.94
219161.1
219209.6
219273.62
203386.29
203177.87
203093.83
203145.47
203351.86
203725.05
204272.57
204989.48
205863.12
206873.8
207995.22
209194.18
210432.52
211669.53
212864.88
213981.9
214990.77
215871.08
216613.15
217217.66
217693.77
218056.42
218323.71
218515
218649.19
218742.6
218810.45
218872.93
218919.45
218982.39
203639.78
203453.88
203392.68
203466.78
203695.28
204088.44
204651.69
205378.31
206254.13
207257.6
208360.66
209529.08
210724.74
211908.13
213041.35
214091.16
215031.79
215846.78
216529.71
217083.4
217517.95
217848.16
218091.25
218265.26
218387.62
218473.3
218536.28
218595.46
218640.16
218701.99
203898.69
203734.98
203696.17
203792.03
204041.27
204452.31
205028.53
205761.52
206635.6
207627.53
208707.92
209842.02
210992.23
212120.66
213192.12
214176.84
215052.79
215807
216435.74
216943.45
217340.77
217642.13
217863.84
218022.65
218134.65
218213.55
218272.26
218328.45
218371.47
218432.16
204162.64
204020.67
204003.67
204120.35
204388.75
204815.37
205401.67
206137.6
207006.03
207982.34
209036.19
210132.79
211235.48
212308.37
213319.08
214241.24
215056.26
215754.16
216333.37
216799.53
217163.49
217439.21
217642
217787.42
217890.31
217963.26
218018.19
218071.67
218113.12
218172.64
204431.18
204310.41
204314.47
204450.81
204736.59
205176.33
205769.71
206505.12
207364.14
208321.02
209344.94
210401.46
211455.27
212472.67
213424.2
214286.66
215044.56
215690.45
216224.49
216653.12
216987.2
217240.09
217426.12
217559.73
217654.6
217722.32
217773.9
217824.88
217864.85
217923.16
204703.82
204603.58
204627.78
204782.44
205083.62
205533.91
206131.31
206862.79
207708.8
208642.81
209633.91
210648.41
211652.6
212615.15
213509.45
214315.28
215019.86
215617.85
216110.75
216505.51
216812.82
217045.35
217216.52
217339.69
217427.49
217490.58
217539.18
217587.85
217626.42
217683.48
204980
204899.52
204942.78
205114.2
205428.66
205886.85
206485.21
207209.45
208039.1
208947.22
209903.13
210874.23
211828.64
212737.47
213576.82
214329.2
214984.17
215538.15
215993.61
216357.8
216641.1
216855.48
217013.45
217127.37
217208.91
217267.91
217313.84
217360.37
217397.6
217453.35
205259.12
205197.51
205258.57
205445.07
205770.56
206233.94
206830.25
207544.09
208354.35
209233.96
210152.86
211079.74
211984.72
212841.32
213628.21
214330.36
214939.32
215452.92
215874.34
216210.94
216472.69
216670.86
216817.07
216922.79
216998.8
217054.15
217097.7
217142.22
217178.16
217232.57
205540.51
205496.76
205574.25
205773.97
206108.18
206574.06
207165.4
207865.89
208654.07
209503.02
210383.56
211265.91
212122.24
212928.4
213665.48
214320.59
214886.97
215363.56
215754.05
216065.72
216308.11
216491.78
216627.52
216725.96
216797.04
216849.16
216890.55
216933.19
216967.89
217020.91
205823.48
205796.47
205888.87
206099.89
206440.45
206906.17
207489.76
208174.23
208937.98
209754.57
210595.9
211433.85
212242.65
213000.4
213690.38
214301.56
214828.61
215271.31
215633.68
215922.83
216147.81
216318.49
216444.89
216536.83
216603.54
216652.76
216692.19
216733.05
216766.52
216818.11
206107.27
206095.79
206201.5
206421.8
206766.34
207229.34
207802.6
208468.66
209206.04
209988.99
210790.68
211584.74
212347.43
213058.95
213704.54
214274.8
214765.57
215177.26
215514.06
215782.85
215992.15
216151.17
216269.21
216355.36
216418.16
216464.78
216502.41
216541.56
216573.84
216623.95
206391.11
206393.88
206511.19
206738.73
207084.95
207542.78
208103.34
208748.91
209458.35
210206.79
210968.83
211719.83
212438.03
213105.59
213709.48
214241.71
214699.03
215082.35
215395.89
215646.24
215841.4
215989.94
216100.49
216181.46
216240.75
216285.02
216321.01
216358.55
216389.66
216438.25
206674.21
206689.87
206817.04
207049.8
207395.44
207845.83
208391.57
209014.89
209695.2
210408.66
211131.35
211840.4
212515.9
213141.8
213706.62
214203.53
214630.06
214987.41
215279.77
215513.4
215695.79
215834.9
215938.71
216015.03
216071.19
216113.35
216147.84
216183.84
216213.8
216260.85
206955.78
206982.91
207118.19
207354.16
207697.09
208137.97
208667.04
209266.69
209917.02
210595.37
211279.3
211947.7
212582.39
213168.95
213697.24
214161.4
214559.56
214893.14
215166.2
215384.66
215555.5
215686.1
215783.85
215856
215909.33
215949.58
215982.68
216017.19
216046.02
216091.49
207235.01
207272.19
207413.82
207651.08
207989.32
208418.81
208929.64
209504.51
210124.35
210767.75
211413.79
212043
212638.84
213188.33
213682.49
214116.32
214488.36
214800.15
215055.61
215260.28
215420.65
215543.56
215635.85
215704.22
215754.99
215793.49
215825.26
215858.32
215886.02
215929.89
207511.11
207556.92
207703.19
207939.91
208271.63
208688.11
209179.4
209728.69
210317.84
210926.72
211535.9
212127.5
212686.46
213201.1
213663.45
214069.17
214417.15
214708.97
214948.36
215140.47
215291.33
215407.26
215494.6
215559.56
215607.99
215644.86
215675.38
215707.02
215733.6
215775.81
207783.35
207836.36
207985.63
208220.11
208543.69
208945.75
209416.49
209939.69
210498.21
211073.21
211646.73
212202.36
212726.41
213208.34
213641.05
214020.73
214346.54
214620.04
214844.72
215025.38
215167.58
215277.17
215360
215421.86
215468.16
215503.53
215532.88
215563.16
215588.65
215629.18
208050.99
208109.84
208260.55
208491.24
208805.23
209191.73
209641.17
210138.03
210666.21
211208.16
211747.34
212268.69
212759.76
213211.03
213616.13
213971.7
214277.06
214533.73
214744.94
214915.13
215049.43
215153.24
215231.98
215291.01
215335.36
215369.36
215397.62
215426.61
215451.01
215489.86
208313.37
208376.74
208527.45
208752.96
209056.14
209426.16
209853.8
210324.3
210822.64
211332.53
211838.74
212327.5
212787.48
213210.04
213589.43
213922.66
214209.16
214450.34
214649.19
214809.79
214936.87
215035.41
215110.42
215166.87
215209.43
215242.15
215269.38
215297.1
215320.43
215357.6
208569.9
208636.55
208785.93
209005.05
209296.4
209649.25
210054.81
210499.15
210968.31
211447.22
211921.91
212379.77
212810.47
213206.16
213561.62
213874.14
214143.21
214370.13
214557.61
214709.42
214829.89
214923.6
214995.18
215049.25
215090.16
215121.67
215147.89
215174.34
215196.6
215232.07
208820.02
208888.81
209035.69
209247.36
209526.06
209861.27
210244.69
210663.25
211104.02
211553.13
211997.75
212426.37
212829.54
213200.09
213533.27
213826.58
214079.53
214293.28
214470.31
214614.03
214728.42
214817.69
214886.12
214937.99
214977.34
215007.69
215032.91
215058.11
215079.3
215113.06
209063.3
209133.17
209276.51
209479.87
209745.29
210062.6
210424
210817.3
211230.59
211651.11
212067.13
212468.11
212845.41
213192.46
213504.88
213780.35
214018.38
214219.96
214387.34
214523.61
214632.41
214717.58
214783.1
214832.92
214870.79
214900.03
214924.27
214948.24
214968.36
215000.4
209299.35
209369.37
209508.27
209702.62
209954.34
210253.64
210593.3
210961.99
211348.78
211741.97
212130.85
212505.74
212858.74
213183.81
213476.89
213735.78
213959.96
214150.28
214308.74
214438.14
214541.76
214623.15
214685.97
214733.86
214770.35
214798.51
214821.8
214844.56
214863.63
214893.94
209527.9
209597.23
209730.94
209915.75
210153.5
210434.87
210753.2
211098.03
211459.37
211826.5
212189.64
212539.94
212870.13
213174.63
213449.66
213693.12
213904.44
214084.33
214234.53
214357.55
214456.39
214534.27
214594.57
214640.67
214675.82
214702.95
214725.29
214746.87
214764.9
214793.48
209748.75
209816.68
209944.61
210119.49
210343.16
210606.8
210904.33
211226.13
211563.09
211905.43
212244.21
212571.33
212880.1
213165.35
213423.52
213652.6
213851.96
214022.15
214164.68
214281.79
214376.19
214450.81
214508.75
214553.15
214587.04
214613.16
214634.58
214654.99
214671.99
214698.85
209961.8
210027.72
210149.4
210314.12
210523.75
210769.98
211047.33
211346.98
211660.66
211979.45
212295.21
212600.49
212889.14
213156.36
213398.77
213614.42
213802.63
213963.78
214099.17
214210.78
214301.04
214372.63
214428.36
214471.16
214503.83
214528.97
214549.46
214568.72
214584.69
214609.83
210167.01
210230.44
210345.52
210499.98
210695.72
210924.98
211182.85
211461.27
211752.77
212049.24
212343.24
212627.95
212897.71
213148
213375.65
213578.75
213756.53
213909.24
214037.96
214144.44
214230.83
214299.57
214353.25
214394.52
214426.03
214450.19
214469.76
214487.87
214502.82
214526.26
210364.4
210424.96
210533.24
210677.46
210859.56
211072.38
211311.52
211569.67
211840.09
212115.41
212388.87
212654.22
212906.2
213140.61
213354.41
213545.72
213713.73
213858.52
213981
214082.66
214165.44
214231.52
214283.25
214323.09
214353.46
214376.65
214395.28
214412.25
214426.19
214447.94
210554.04
210611.45
210712.84
210846.94
211015.78
211212.74
211433.95
211672.8
211923.23
212178.56
212432.65
212679.76
212915.01
213134.48
213335.26
213515.5
213674.3
213811.65
213928.24
214025.37
214104.75
214168.32
214218.21
214256.67
214285.93
214308.18
214325.87
214341.7
214354.64
214374.71
210736.02
210790.11
210884.6
211008.82
211164.83
211346.6
211550.71
211771.25
212002.76
212239.22
212475.05
212704.97
212924.49
213129.89
213318.41
213488.2
213638.33
213768.64
213879.66
213972.5
214048.64
214109.83
214157.97
214195.11
214223.31
214244.61
214261.37
214276.06
214287.98
214306.39
210910.42
210961.12
211048.82
211163.46
211307.17
211474.44
211662.33
211865.53
212079.19
212297.87
212516.5
212730.25
212934.95
213127.09
213304.04
213463.97
213605.88
213729.51
213835.23
213923.96
213997
214055.9
214102.37
214138.26
214165.45
214185.82
214201.6
214215.14
214226.03
214242.79
211077.41
211124.69
211205.77
211311.21
211443.18
211596.7
211769.26
211956.12
212152.96
212354.91
212557.36
212755.89
212946.63
213126.3
213292.33
213442.93
213577.04
213694.29
213794.93
213879.7
213949.75
214006.44
214051.31
214085.99
214112.18
214131.6
214146.37
214158.73
214168.61
214183.75
211237.21
211281.1
211355.78
211452.44
211573.27
211713.8
211871.91
212043.39
212224.43
212410.66
212597.91
212782.14
212959.76
213127.66
213283.38
213425.15
213551.85
213663.02
213758.76
213839.7
213906.83
213961.36
214004.64
214038.11
214063.28
214081.76
214095.52
214106.72
214115.6
214129.14
211390.15
211430.72
211499.26
211587.57
211697.87
211826.17
211970.69
212127.73
212293.94
212465.41
212638.39
212809.19
212974.45
213131.27
213277.27
213410.68
213530.35
213635.71
213726.75
213803.97
213868.22
213920.55
213962.19
213994.43
214018.62
214036.2
214048.98
214059.03
214066.9
214078.86
211536.8
211574.09
211636.76
211717.14
211817.51
211934.29
212066.05
212209.54
212361.83
212519.45
212679.02
212837.18
212990.82
213137.2
213274.02
213399.53
213512.54
213612.37
213698.91
213772.49
213833.83
213883.91
213923.86
213954.88
213978.16
213994.91
214006.71
214015.53
214022.31
214032.69
211677.92
211712.02
211769.07
211841.93
211932.93
212038.87
212158.63
212289.37
212428.58
212573.16
212720.1
212866.33
213008.99
213145.5
213273.64
213391.69
213498.39
213592.97
213675.16
213745.18
213803.63
213851.45
213889.71
213919.52
213941.87
213957.73
213968.44
213975.93
213981.58
213990.41
211814.77
211845.62
211897.3
211963.02
212045.16
212140.88
212249.32
212368.05
212494.88
212627.12
212762.09
212897
213029.22
213156.34
213276.22
213387.15
213487.82
213577.38
213655.43
213722.04
213777.74
213823.34
213859.82
213888.19
213909.41
213924.26
213933.82
213940
213944.57
213951.94
211948.14
211976.1
212022.72
212081.71
212155.49
212241.55
212339.31
212446.65
212561.75
212682.24
212805.77
212929.83
213052.02
213170.06
213281.92
213385.94
213480.8
213565.56
213639.71
213703.17
213756.23
213799.52
213833.92
213860.5
213880.37
213894.22
213902.78
213907.78
213911.35
213917.31
212080.06
212104.84
212146.62
212199.29
212265.23
212342.24
212429.93
212526.51
212630.46
212739.73
212852.25
212965.79
213078.15
213187.24
213291.19
213388.4
213477.57
213557.7
213628.11
213688.47
213738.83
213779.59
213811.66
213836.31
213854.85
213867.89
213875.66
213879.51
213881.96
213886.49
212209.29
212232.19
212269.8
212316.72
212375.46
212444.08
212522.4
212608.89
212702.29
212800.84
212902.74
213006.01
213108.72
213208.96
213305.01
213395.35
213478.7
213553.98
213620.4
213677.47
213725.01
213763.35
213793.33
213816.25
213833.53
213845.8
213852.71
213855.15
213856.18
213859.15
212340.51
212359.83
212393.1
212434.71
212486.86
212547.77
212617.39
212694.46
212777.97
212866.43
212958.3
213051.83
213145.23
213236.73
213324.68
213407.67
213484.54
213554.37
213616.38
213670.03
213715.07
213751.61
213780.03
213801.24
213816.82
213827.8
213833.45
213834.1
213833.51
213834.95
212466
212485.99
212516.57
212553.63
212599.71
212653.48
212715.09
212783.55
212858.04
212937.28
213019.87
213104.2
213188.57
213271.25
213350.71
213425.8
213495.72
213559.77
213617.3
213667.71
213710.56
213745.5
213772.1
213790.77
213803.62
213812.43
213816.5
213815.48
213813.58
213813.84
212604.35
212617.6
212642.95
212675.01
212715.45
212762.79
212817.11
212877.53
212943.36
213013.53
213086.9
213162.13
213237.73
213312.09
213383.78
213451.74
213515.23
213573.6
213626.16
213672.44
213711.86
213743.59
213766.83
213781.94
213791.58
213797.92
213800.77
213799.06
213796.61
213796.16
212724.48
212745.48
212772
212801.79
212837.45
212878.34
212924.91
212976.73
213033.51
213094.6
213159.21
213226.27
213294.41
213362.03
213427.49
213489.27
213546.14
213597.23
213642.32
213681.67
213714.93
213741.28
213760.41
213772.82
213780.59
213785.36
213787.91
213786.39
213783.54
213782.25
212895.85
212900.25
212916
212937.36
212965.76
212999.8
213039.64
213084.72
213134.68
213188.74
213245.9
213304.92
213364.54
213423.43
213480.08
213532.88
213580.61
213622.52
213658.97
213690.56
213717.41
213739.32
213756.95
213769.94
213777.22
213780.87
213783.09
213780.34
213775.3
213771.92
212999.6
213026.83
213055.24
213082.76
213112.52
213144.65
213179.51
213217.13
213257.6
213300.51
213345.29
213391.3
213437.82
213483.88
213528.11
213570.37
213611.33
213649.83
213683.85
213711.59
213734.58
213754.44
213772.51
213786.24
213790.24
213789.68
213789.14
213781.19
213771.26
213764.52
213290.47
213283.14
213284.22
213288.2
213298.69
213313.01
213331.54
213353.68
213379.66
213409.4
213443.34
213481.77
213522.27
213562.09
213598.96
213635.99
213676.08
213715.87
213749.25
213771.25
213786.87
213799.85
213810.77
213813.8
213810.94
213802.46
213795.2
213781.4
213767.97
213759.53
213364.37
213405.27
213435.46
213461.2
213488.59
213515.71
213542.25
213567.97
213593.43
213619.5
213646.82
213672.39
213696.08
213714.81
213735.53
213760.37
213782.8
213800.22
213814.39
213825.11
213831.3
213833.63
213828.68
213817.63
213803.35
213794.73
213777.8
213768.54
213761.03
213756.89
227110.18
227715.09
226415.75
224840.84
223533.87
222318.19
221270.28
220466
219722.87
219046.79
218408.56
217797.92
217204.99
216623.38
216043.05
215455.5
214864.75
214282.79
213701.08
213079.65
212397.29
211701.35
211046.85
210405.95
209685.83
208855.6
207997.02
207177.93
206381.03
205543.17
225284.2
221116.2
218414.51
216404.74
214897.55
213634.31
212597.96
211736.18
210956.73
210244.4
209576.4
208939.9
208325.83
207726.27
207131.93
206536.14
205941.55
205355.02
204766.91
204147.47
203484.76
202813.86
202174.4
201542.88
200849.98
200075.8
199277.43
198513.93
197777.7
197026.53
220025.12
217351.04
216546.59
215715.31
214985.65
214333
213686.12
213092.06
212516.51
211984.74
211473.43
210979.18
210494.46
210014.45
209532.72
209043.91
208549.08
208053.86
207548.91
207006.13
206421.83
205830.35
205265.17
204698.37
204064.09
203346.08
202602.79
201889.98
201194.15
200466.93
218118.91
216495.51
216109.69
215337.85
214494.48
213651.83
212896.23
212188.58
211541.2
210932.16
210351.03
209789.38
209240.46
208698.29
208155.78
207608.54
207059.68
206514.18
205961.66
205375.99
204749.84
204118.22
203515.78
202915.99
202253.29
201511.4
200749.36
200023.84
199322.4
198598.22
217754.81
216567.96
216365.45
215544.84
214818.82
214064.11
213388.65
212746.83
212154.69
211594.97
211059.5
210540.27
210031.43
209527.31
209021.26
208509.3
207994.69
207482.24
206961.33
206406.06
205809.95
205208.18
204634.4
204060.83
203421.62
202701.11
201958.67
201250.37
200563.18
199850.29
217716.79
216623.75
216252.98
215423.07
214638.01
213841.37
213124.34
212447.25
211824.48
211235.79
210673.57
210129.44
209597.25
209071.14
208544.35
208012.76
207479.56
206949.62
206412.49
205842.47
205232.88
204618.68
204033.82
203451.55
202807.04
202084.65
201343.09
200638.61
199959.33
199258.73
217718.02
216635.64
216256.57
215477.34
214738.34
213987.6
213306.06
212659.67
212061.75
211495.08
210952.69
210426.94
209912
209402.24
208891.13
208374.77
207856.39
207340.78
206817.41
206260.72
205664.43
205063.46
204491.18
203920.44
203286.54
202574.31
201842.53
201147.09
200476.27
199783.54
217590.42
216604.98
216189.94
215399.17
214651.11
213891.37
213198.2
212540.39
211932.12
211354.74
210802.3
210267.14
209743.43
209225.51
208706.9
208183.72
207659.21
207138.1
206609.91
206049.41
205450.55
204848.01
204274.89
203704.43
203072.9
202365.46
201640.42
200953.48
200293.66
199614.75
217528.96
216609.59
216166.09
215400.04
214680.16
213945.87
213272.34
212631.28
212036.08
211470.04
210927.53
210401.51
209886.3
209376.43
208865.58
208350.01
207833
207319.19
206798.05
206244.6
205653.1
205058.08
204492.19
203928.61
203304.19
202604.53
201887.67
201209.02
200557.88
199887.82
217400.76
216589.35
216101.3
215342.09
214625.09
213894.22
213220.5
212577.94
211980.58
211411.57
210865.98
210337.07
209819.19
209306.92
208794.06
208276.99
207758.95
207244.44
206722.98
206170
205580.11
204987.52
204424.26
203863.79
203244.04
202551.19
201842.72
201173.67
200533.9
199877.29
217345.3
216573.07
216057.05
215320.58
214622.09
213909.92
213249.8
212618.8
212030.05
211468.23
210928.66
210405.26
209892.44
209384.97
208876.8
208364.46
207851.23
207341.46
206824.67
206276.67
205692.46
205105.96
204548.6
203993.94
203380.82
202695.98
201996.43
201336.74
200707.03
200060.92
217227.64
216536.15
216000.28
215274.08
214585.5
213882.36
213227.66
212600.1
212013.1
211452.2
210912.98
210389.83
209877.24
209370.05
208862.38
208350.9
207838.89
207330.5
206815.24
206269.45
205688.59
205106.13
204552.7
204002.09
203394.48
202717.29
202026.91
201377.32
200759.03
200125.99
217150.74
216495.48
215947.12
215242.84
214568.09
213880.1
213235.82
212617.19
212036.78
211480.98
210945.77
210426.38
209917.16
209413.2
208908.77
208400.74
207892.36
207387.6
206875.98
206334.37
205758.7
205182.01
204634.07
204088.87
203487.91
202819.3
202138.76
201499.58
200892.41
200271.13
217057.61
216442.3
215883.9
215198
214533.92
213858.04
213221.76
212609.21
212032.25
211479.83
210946.88
210429.45
209922.05
209419.83
208917.28
208411.44
207905.53
207403.28
206894.21
206355.84
205784.64
205213.1
204669.94
204129.45
203534.71
202874.68
202204.29
201576.01
200980.65
200372.51
216960.12
216385.51
215824.7
215158.68
214507.83
213846.13
213219.67
212615.54
212045.17
211496.97
210967.76
210453.68
209949.28
209449.94
208950.33
208447.69
207945.23
207446.41
206940.76
206406.52
205840.71
205275.2
204737.62
204202.52
203614.69
202963.99
202304.47
201687.61
201104.21
200508.82
216869.58
216317.71
215760.33
215112.39
214473.95
213825.53
213208.59
212612.43
212045.43
211502.37
210976.59
210465.37
209963.61
209466.74
208969.7
208469.94
207970.62
207474.88
206972.28
206441.86
205881.28
205321.66
204789.4
204259.38
203678.29
203037.03
202388.7
201783.6
201212.47
200630.52
216776.04
216247.49
215696.75
215067.42
214442.33
213807.77
213200.83
212613.54
212053.31
211513.76
210992.6
210484.62
209986.05
209492.12
208998.13
208501.73
208006.04
207513.83
207014.75
206488.67
205933.92
205380.82
204854.38
204329.88
203756.09
203124.98
202488.61
201895.89
201337.42
200769.01
216678.56
216171.8
215629.36
215018.32
214406.57
213785.84
213189.12
212610.71
212055.56
211521.48
211004.4
210499.98
210004.6
209513.68
209022.76
208529.75
208037.71
207549
207053.34
206531.58
205982.74
205436.24
204915.57
204396.47
203829.94
203209.21
202585.16
202005.13
201459.49
200905.02
216579.69
216093.2
215561.35
214968.6
214370.63
213763.98
213177.82
212608.27
212060
211530.47
211018.41
210517.6
210025.75
209538.08
209050.52
208561.21
208073.12
207588.2
207096.26
206579.19
206036.76
205497.33
204982.82
204469.42
203910.62
203300.92
202689.96
202123.24
201590.84
201050.64
216478.11
216010.24