/*--------------------------------*- C++ -*----------------------------------*\
  =========                 |
  \\      /  F ield         | OpenFOAM: The Open Source CFD Toolbox
   \\    /   O peration     | Website:  https://openfoam.org
    \\  /    A nd           | Version:  6
     \\/     M anipulation  |
\*---------------------------------------------------------------------------*/
FoamFile
{
    version     2.0;
    format      ascii;
    class       volScalarField;
    location    "0";
    object      p;
}
// * * * * * * * * * * * * * * * * * * * * * * * * * * * * * * * * * * * * * //

dimensions      [1 -1 -2 0 0 0 0];

internalField   nonuniform List<scalar> 
16000
(
78308.463
77280.444
76407.343
75703.754
75142.048
74717.053
74446.655
74349.132
74470.974
74773.363
75193.176
75733.041
76404.564
77247.322
78269.017
79443.246
80758.614
82239.625
83903.474
85794.579
87998.932
90640.908
93885.042
97951.372
103118.39
109862.79
118079.33
127096.05
137327.76
143534.37
78521.892
77520.382
76669.206
75983.114
75444.532
75048.599
74814.563
74760.293
74931.474
75290.899
75776.954
76394.412
77157.261
78110.035
79266.033
80596.702
82098.836
83806.362
85748.91
87986.093
90620.83
93799.523
97689.955
102462.43
108199.24
115300.98
123376.31
131649.99
138515.13
142637.58
78530.576
77524.642
76673.48
75988.811
75450.801
75055.304
74822.806
74767.052
74934.911
75295.038
75781.346
76398.113
77165.052
78128.117
79292.235
80628.945
82145.286
83873.917
85852.069
88148.261
90878.321
94212.316
98331.173
103420.9
109578.53
116800.67
124594.48
132091.73
137996.8
141237.36
78757.688
77772.768
76943.165
76284.109
75774.076
75411.567
75220.155
75205.991
75425.054
75846.992
76400.549
77094.496
77956.097
79031.214
80319.953
81799.431
83483.493
85408.411
87618.653
90187.283
93228.884
96907.75
101355.31
106627.53
112997.76
119830.89
126804.12
132928.33
137265.42
139654.97
78787.959
77801.517
76972.595
76314.148
75804.952
75444.476
75251.992
75241.064
75469.053
75898.205
76461.067
77168.32
78053.412
79159.777
80483.618
82009.028
83756.431
85766.709
88095.212
90825.458
94078.953
98027.612
102790.27
108358.02
114669.33
121278.18
127546.3
132711.22
136126.1
138011.3
79006.987
78042.393
77236.465
76604.349
76125.481
75799.217
75644.058
75672.364
75950.584
76436.496
77059.412
77837.055
78807.632
80010.667
81438.744
83081.764
84964.165
87128.351
89633.853
92565.078
96033.125
100188.3
105074.4
110737.41
116739.23
122752.38
128132.1
132306.08
134892.06
136386.87
79070.657
78106.939
77304.194
76675.6
76202.194
75884.142
75731.072
75771.439
76074.102
76575.549
77222.683
78033.242
79050.684
80310.59
81805.198
83531.732
85519.831
87816.623
90488.901
93625.561
97324.105
101694.3
106744.47
112333.31
118088.58
123543.07
128151.15
131563.03
133572.56
134805.33
79277.63
78335.412
77555.067
76951.916
76507.101
76221.852
76095.97
76177.347
76529.514
77077.743
77778.126
78652.364
79746.072
81089.362
82673.876
84502.404
86607.227
89037.17
91860.359
95162.568
99024.825
103490.77
108556.31
113937
119256.17
124067.15
127936.38
130695.56
132249.21
133285.39
79376.072
78438.671
77665.749
77071.464
76637.094
76363.949
76251.35
76357.691
76738.576
77315.777
78053.931
78978.512
80137.079
81555.196
83226.061
85158.164
87386.578
89961.89
92950.57
96426.964
100448.87
105015.39
110017.53
115149.35
120022.85
124230.13
127469.69
129717.69
130935.78
131829.68
79574.103
78657.057
77905.341
77335.261
76927.15
76682.642
76595.827
76742.731
77168.871
77788.283
78576.835
79562.996
80794.047
82290.55
84047.439
86077.637
88417.642
91118.021
94240.415
97842.715
101950.63
106516.01
111360.92
116155.01
120536.3
124166.66
126860.69
128695.74
129654.84
130440.13
79704.249
78796.425
78056.533
77500.824
77109.765
76878.385
76813.213
76998.079
77457.015
78114.52
78951.078
79999.266
81304.963
82884.573
84735.31
86873.42
89335.436
92169.156
95426.601
99143.966
103309.41
107822.1
112456.51
116885.42
120785.87
123899.72
126139.7
127649.66
128412.02
129114.39
79899.236
79010.935
78291.687
77759.631
77393.892
77184.297
77150.751
77378.385
77877.496
78577.282
79465.551
80577.489
81956.319
83614.743
85552.422
87787.948
90356.76
93301.625
96661.182
100446.09
104606.24
108996.12
113363.16
117399.43
120835.11
123490.6
125352.5
126603.32
127212.92
127850.03
80056.628
79181.651
78478.432
77965.003
77618.756
77427.857
77425.053
77693.111
78230.877
78974.531
79917.837
81098.254
82555.289
84298.456
86329.343
88667.215
91344.303
94395.01
97840.411
101662.25
105772.85
109992.76
114062.18
117705.84
120711.96
122971.24
124522.58
125567.68
126058.54
126643.7
80254.781
79399.464
78717.574
78227.763
77904.637
77737.383
77770.232
78080.977
78658.973
79447.536
80446.388
81694.086
83225.833
85048.605
87165.592
89595.507
92365.668
95499.387
98997.385
102811.89
106822.59
110828.91
114579.41
117839.64
120455.4
122375.17
123671.43
124551.83
124949.25
125492.15
80435.564
79597.193
78935
78466.703
78164.674
78021.63
78091.381
78444.978
79064.771
79901.427
80959.981
82278.925
83888.534
85793.442
87997.398
90516.76
93371.635
96571.375
100094.3
103864.38
107735.93
111500.3
114926.46
117824.53
120093.05
121725.13
122812.51
123560.6
123884.14
124392.12
80642.134
79824.581
79185.119
78740.568
78461.425
78345.886
78455.026
78851.835
79513.725
80398.88
81517.043
82905.526
84589.531
86571.657
88855.321
91452.976
94375.531
97616.308
101130.81
104818.23
108516.18
112019.34
115124.94
117687.52
119650.87
121040.28
121956.28
122597.31
122861.94
123340.55
80843.768
80046.471
79429.67
79008.247
78752.048
78666.122
78816.467
79257.451
79963.452
80900.012
82080.635
83540.237
85298.731
87356.542
89715.464
92382.283
95356.773
98614.883
102090.38
105662.84
109162.22
112395.84
115193.42
117450.98
119149.02
120334.54
121109.75
121663.64
121881.08
122334.57
81062.779
80288.243
79695.818
79298.492
79066.604
79012.806
79205.611
79690.685
80441.091
81429.515
82672.243
84200.829
86029.958
88157.699
90582.984
93305.364
96312.013
99561.221
102967.55
106397.07
109680.39
112644.13
115151.6
117135.44
118604.41
119618.81
120277.99
120760.46
120939.89
121371.53
81284.05
80532.833
79965.28
79592.161
79385.779
79366.551
79603.301
80133.325
80929.78
81971.962
83277.737
84874.377
86771.329
88963.832
91446.627
94210.605
97229.448
100444.61
103755.13
107020.11
110077.85
112778.31
115017.27
116758.15
118030.34
118901.13
119464.4
119887.98
120036.66
120449.02
81518.481
80792.366
80250.675
79902.372
79722.996
79740.376
80021.7
80596.593
81439.492
82535.655
83903.344
85564.886
87524.549
89774.182
92303.102
95092.46
98102.274
101258.98
104450.56
107535.23
110364.41
112813.17
114806.89
116333.81
117437.47
118187.62
118671.31
119046.02
119169.74
119564.8
81759.176
81059.147
80543.901
80220.969
80070.334
80126.426
80453.188
81073.463
81963.808
83114.546
84543.105
86266.33
88283.3
90581.795
93144.625
95942.562
98922.565
101998.73
105052.74
107947.33
110550.63
112762.77
114534.95
115874.6
116834.14
117482.78
117900.23
118234.11
118337.52
118716.87
82011.21
81338.613
80850.433
80553.588
80433.379
80529.729
80902.121
81567.67
82505.625
83710.355
85197.329
86977.571
89044.929
91382.433
93965.548
96754.552
99684.672
102660.92
105563.25
108263.25
110647.71
112640.39
114214.14
115390.54
116226.92
116789.98
117152.08
117451.63
117538.48
117903.36
82271.695
81627.531
81166.949
80897.092
80809.152
80947.225
81365.487
82076.397
83062.134
84319.958
85862.36
87694.328
89804.384
92170.181
94759.347
97522.104
100383.9
103244.17
105985.3
108490.82
110666.74
112458.12
113855.32
114889.83
115620.92
116111.64
116427.34
116697.86
116771.17
117122.59
82542.9
81928.175
81495.68
81253.786
81199.769
81380.51
81844.419
82600.339
83633.345
84942.398
86536.159
88413.487
90557.464
92939.883
95520.419
98240.21
101017.31
103749.04
106323.68
108638.57
110618.44
112226.82
113467.72
114379.1
115020.1
115449.53
115726.2
115972
116034.25
116373
82823.725
82239.259
81835.369
81622.579
81604.1
81828.225
82337.451
83137.92
84217.304
85575.068
87215.371
89130.944
91299.325
93686.169
96243.506
98904.816
101583.37
104177.57
106584.17
108715.24
110512.85
111956.04
113059.07
113863.71
114427.54
114804.88
115048.62
115273.26
115326.46
115653.2
83115.133
82561.639
82186.859
82004.332
82022.726
82290.501
82844.359
83688.505
84812.693
86215.772
87896.92
89842.812
92025.399
94404.179
96924.235
99513.143
102082.01
104533.07
106773.3
108729.47
110359.19
111654.12
112635.86
113347.95
113845.57
114178.56
114394.42
114600.81
114646.63
114961.89
83416.724
82894.792
82549.686
82398.627
82455.014
82766.395
83363.986
84250.609
85417.431
86861.685
88577.268
90544.942
92731.133
95089.449
97559.062
100063.59
102514.44
104819.83
106897.94
108689.58
110165.8
111328.21
112203.41
112835.27
113275.99
113571.1
113763.29
113953.86
113993.65
114297.86
83728.848
83238.954
82924.097
82805.634
82900.787
83255.329
83895.419
84822.849
86029.434
87509.951
89252.886
91233.304
93412.312
95738.166
98145.424
100555.73
102882.95
105042.83
106965.07
108603.36
109940.09
110984.44
111766.17
112328.41
112720.14
112982.82
113154.84
113331.6
113366.49
113660.03
84051.309
83593.843
83309.841
83225.005
83359.367
83756.286
84437.339
85403.435
86646.25
88157.45
89920.129
91903.956
94065.086
96347.213
98681.729
100990.19
103190.69
105207.5
106981.54
108478.01
109688.58
110628.01
111327.77
111829.55
112179.01
112413.84
112568.65
112733.27
112764.19
113047.35
84384.143
83959.406
83706.846
83656.478
83830.104
84268.243
84988.358
85990.451
87265.303
88801.006
90575.423
92553.215
94686.124
96914.258
99167.341
101368.54
103441.51
105319.46
106953.93
108320.07
109416.96
110263.31
110891.18
111340.38
111653.29
111864.17
112004.25
112158.14
112185.86
112458.91
84727.151
84335.377
84114.808
84099.517
84312.081
84789.936
85546.84
86581.732
87883.833
89437.384
91215.301
93177.725
95272.673
97437.766
99602.508
101693.1
103639.66
105384.35
106888.4
108135.39
109130.17
109894.01
110458.81
110862.22
111143.5
111333.71
111461.14
111605.49
111630.65
111893.81
85080.173
84721.518
84533.394
84553.502
84804.28
85319.984
86111.003
87174.974
88499.005
90063.402
91836.516
93774.555
95822.621
97916.99
99988.272
101966.82
103789.69
105407.7
106790.68
107929.21
108832.44
109523.19
110032.61
110396.11
110649.93
110822.29
110938.84
111074.63
111097.76
111351.25
85442.924
85117.472
84962.112
85017.618
85305.498
85856.833
86678.893
87767.732
89107.95
90675.986
92436.106
94341.26
96334.518
98351.93
100326.35
102193.06
103896.24
105394.78
106666
107706.1
108527.39
109153.4
109614.17
109942.82
110172.78
110329.67
110436.83
110564.92
110586.46
110830.45
85815.085
85522.826
85400.363
85490.915
85814.399
86398.796
87248.424
88357.489
89707.837
91272.251
93011.475
94875.932
96807.573
98743.258
100618.99
102375.49
103963.95
105350.57
106519.06
107470.09
108218.1
108786.76
109204.74
109502.93
109712.11
109855.57
109954.61
110075.72
110096.02
110330.68
86196.247
85937.06
85847.402
85972.282
86329.507
86944.059
87817.412
88941.704
90295.935
91849.567
93560.439
95377.214
97241.621
99092.23
100868.88
102517.96
103997.31
105279.68
106354.1
107224.65
107907.17
108425.02
108805.34
109076.84
109267.89
109399.67
109491.67
109606.42
109625.78
109851.29
86585.933
86359.561
86302.353
86460.474
86849.226
87490.705
88383.61
89517.868
90869.683
92405.617
94081.265
95844.307
97637.072
99400.588
101078.98
102624.32
104000.62
105186.34
106174.86
106972.81
107596.82
108069.61
108416.74
108664.84
108840.05
108961.63
109047.52
109156.44
109175.11
109391.61
86983.575
86789.606
86764.208
86954.119
87371.857
88036.742
88944.758
90083.563
91426.737
92938.44
94572.694
96276.941
97994.844
99670.462
101252.47
102698.41
103977.94
105074.38
105984.63
106717.15
107288.89
107721.69
108039.53
108267.09
108428.42
108541.11
108621.65
108725.2
108743.38
108951.02
87388.522
87226.358
87231.833
87451.737
87895.621
88580.141
89498.63
90636.513
91965.028
93446.462
95033.936
96675.34
98316.285
99904.266
101392.57
102743.93
103933.02
104947.26
105786.31
106459.91
106984.92
107382.2
107674.16
107883.65
108032.81
108137.71
108213.59
108312.15
108330.01
108528.94
87800.028
87668.873
87703.982
87951.756
88418.687
89118.87
90043.08
91174.638
92482.792
93928.515
95464.657
97040.168
98603.091
100104.61
101502.53
102764.43
103869.31
104808.06
105582.43
106202.95
106686.19
107051.9
107320.96
107514.52
107652.99
107751.06
107822.84
107916.78
107934.44
108124.82
88217.255
88116.097
88179.311
88452.544
88939.202
89650.934
90576.09
91696.091
92978.602
94383.832
95864.945
97372.466
98857.228
100274.2
101585.56
102763.21
103789.98
104659.51
105375.16
105947.9
106393.75
106731.35
106980.13
107159.63
107288.7
107380.77
107448.96
107538.58
107556.16
107738.14
88639.271
88566.88
88656.397
88952.426
89455.325
90174.416
91095.811
92199.291
93451.376
94812.037
96235.27
97673.59
99080.849
100415.8
101644.7
102743.37
103697.85
104504.03
105166.41
105696.09
106108.46
106421.01
106651.79
106818.89
106939.67
107026.45
107091.47
107177.04
107194.61
107368.36
89065.056
89019.987
89133.761
89449.717
89965.255
90687.517
91600.595
92682.944
93900.38
95213.121
96576.434
97945.139
99276.23
100532.13
101682.9
102707.76
103595.48
104343.73
104957.78
105448.65
105831
106121.2
106336
106492.11
106605.57
106687.68
106749.89
106831.63
106849.26
107014.92
89493.513
89474.115
89609.889
89942.749
90467.272
91188.586
92089.027
93146.057
94325.217
95587.404
96889.519
98188.896
99445.704
100625.87
101702.88
102658.97
103485.15
104180.45
104750.65
105206.51
105561.93
105832.16
106032.73
106179.1
106286.08
106364.06
106423.76
106501.89
106519.62
106677.36
89923.475
89927.911
90083.259
90429.898
90959.762
91676.151
92559.936
93587.932
94725.805
95935.5
97175.827
98406.766
99591.609
100699.57
101707.22
102599.36
103368.86
104015.79
104546.19
104970.46
105301.67
105554.02
105741.91
105879.64
105980.87
106055.19
106112.66
106187.4
106205.29
106355.28
90353.719
90379.995
90552.367
90909.615
91441.248
92148.941
93012.412
94008.164
95102.35
96258.266
97436.832
98600.722
99716.244
100755.64
101698.24
102531.04
103248.39
103851.13
104345.38
104741.09
105050.52
105286.86
105463.43
105593.47
105689.61
105760.7
105816.21
105887.73
105905.81
106048.24
90782.988
90828.98
91015.751
91380.449
91910.408
92605.899
93445.801
94406.62
95455.311
96556.762
97674.125
98772.759
99821.836
100796.37
101678.1
102455.89
103125.28
103687.64
104149.04
104518.92
104808.73
105030.69
105197.15
105320.35
105411.97
105480.19
105533.91
105602.37
105620.63
105755.69
91210.005
91273.501
91472.016
91841.07
92366.097
93046.188
93859.696
94783.414
95785.365
96832.2
97889.372
98924.856
99910.513
100823.86
101648.75
102375.6
103000.88
103526.33
103957.85
104304.33
104576.43
104785.47
104942.87
105059.97
105147.55
105213.18
105265.27
105330.78
105349.24
105477.08
91633.494
91712.227
91919.854
92290.288
92807.355
93469.195
94253.927
95138.884
96093.366
97085.906
98084.268
99058.943
99984.283
100840.06
101611.94
102291.64
102876.36
103368.05
103772.35
104097.61
104353.7
104551.11
104700.37
104812.01
104895.98
104959.28
105009.88
105072.6
105091.25
105212.07
92052.201
92143.893
92358.065
92727.065
93233.413
93874.519
94628.537
95473.554
96380.309
97319.279
98260.508
99176.877
100045.03
100846.73
101569.23
102205.3
102752.72
103213.49
103592.99
103898.96
104140.56
104327.46
104469.42
104576.16
104656.9
104718.14
104767.41
104827.51
104846.37
104960.36
92464.912
92567.31
92785.569
93150.523
93643.692
94261.959
94983.762
95788.108
96647.291
97533.755
98419.756
99280.423
100094.48
100845.49
101522.02
102117.73
102630.81
103063.25
103420.1
103708.52
103936.97
104114.39
104249.77
104352.13
104429.99
104489.4
104537.48
104595.1
104614.17
104721.56
92870.472
92981.387
93201.42
93559.951
94037.795
94631.5
95319.999
96083.354
96895.481
97730.775
98563.623
99371.241
100134.25
100837.77
101471.52
102029.89
102511.35
102917.8
103253.93
103526.36
103742.87
103911.7
104041.17
104139.6
104214.88
104272.65
104319.64
104374.88
104394.15
104495.14
93267.8
93385.142
93604.81
93954.797
94415.496
94983.29
95637.785
96360.191
97126.083
97911.765
98693.648
99450.88
100165.79
100824.87
101418.83
101942.63
102394.93
102777.51
103094.67
103352.5
103558.15
103719.2
103843.31
103938.2
104011.17
104067.45
104113.43
104166.39
104185.82
104280.63
93655.903
93777.709
93995.072
94334.667
94776.729
95317.619
95937.767
96619.586
97340.317
98078.111
98811.286
99520.765
100190.42
100807.93
101364.88
101856.67
102282.05
102642.67
102942.43
103186.92
103382.67
103536.63
103655.9
103747.6
103818.48
103873.42
103918.44
103969.23
103988.82
104077.64
94033.888
94158.345
94371.68
94699.316
95121.567
95634.899
96220.672
96862.541
97539.392
98231.144
98917.898
99582.203
100209.31
100787.98
101310.48
101772.58
102173.11
102513.49
102797.29
103029.54
103216.24
103363.76
103478.64
103567.46
103636.45
103690.17
103734.31
103783.04
103802.79
103885.83
94400.965
94526.435
94734.243
95048.633
95450.206
95935.633
96487.29
97090.077
97724.49
98372.126
99014.744
99636.381
100223.53
100765.89
101256.33
101690.89
102068.42
102390.15
102659.24
102880.27
103058.68
103200.32
103311.21
103397.43
103464.72
103517.34
103560.68
103607.46
103627.35
103704.84
94756.46
94881.484
95082.497
95382.627
95762.945
96220.4
96738.444
97303.209
97896.75
98502.242
99102.984
99684.371
100234.02
100742.43
101203
101611.99
101968.22
102272.71
102528.25
102738.96
102909.78
103046.05
103153.31
103237.17
103302.92
103354.55
103397.16
103442.11
103462.13
103534.3
95099.806
95223.12
95416.297
95701.417
96060.166
96489.834
96974.976
97502.934
98057.256
98622.593
99183.675
99727.135
100241.59
100718.27
101151
101536.21
101872.7
102161.23
102404.26
102605.46
102769.3
102900.66
103004.61
103086.33
103150.71
103201.47
103243.4
103286.64
103306.77
103373.83
95430.555
95551.082
95735.604
96005.208
96342.317
96744.599
97197.727
97690.214
98207.026
98734.197
99257.775
99765.525
100246.97
100693.97
101100.72
101463.82
101781.96
102055.71
102287.16
102479.58
102637
102763.86
102864.8
102944.59
103007.74
103057.73
103099.05
103140.67
103160.91
103223.09
95748.363
95865.215
96040.476
96294.283
96609.897
96985.381
97407.528
97865.968
98347.013
98837.982
99326.143
99800.293
100250.77
100670
101052.51
101395
101696.08
101956.1
102176.82
102361.13
102512.64
102635.37
102733.57
102811.63
102873.69
102922.98
102963.73
103003.85
103024.19
103081.71
96052.994
96165.46
96331.049
96568.985
96863.435
97212.869
97605.18
98031.063
98478.096
98934.792
99389.547
99832.098
100253.52
100646.76
101006.62
101329.88
101615.08
101862.33
102073.1
102249.9
102395.96
102514.91
102610.62
102687.12
102748.19
102796.88
102837.12
102875.85
102896.3
102949.4
96344.311
96451.847
96607.534
96829.704
97103.484
97427.746
97791.456
98186.311
98601.082
99025.387
99448.662
99861.51
100255.68
100624.57
100963.25
101268.55
101538.93
101774.3
101975.83
102145.67
102286.71
102402.18
102495.63
102570.7
102630.9
102679.09
102718.91
102756.38
102776.92
102825.83
96622.268
96724.484
96870.197
97076.864
97330.604
97630.677
97967.085
98332.466
98716.703
99110.443
99504.083
99889.02
100257.62
100603.69
100922.54
101211.06
101467.61
101691.9
101884.83
102048.22
102184.6
102296.88
102388.25
102462.07
102521.56
102569.35
102608.79
102645.09
102665.7
102710.65
96886.899
96983.544
97119.355
97310.916
97545.358
97822.304
98132.753
98470.217
98825.621
99190.563
99556.328
99915.043
100259.64
100584.33
100884.6
101157.41
101401.03
101614.98
101799.9
101957.29
102089.36
102198.71
102288.24
102360.98
102419.87
102467.31
102506.4
102541.61
102562.28
102603.49
97138.313
97229.269
97355.365
97532.329
97748.301
98003.244
98289.101
98600.199
98928.432
99266.277
99605.841
99939.93
100262.01
100566.62
100849.48
101107.57
101339.09
101543.38
101720.81
101872.63
102000.74
102107.44
102195.32
102267.11
102325.44
102372.58
102411.35
102445.62
102466.39
102504.12
97376.698
97461.951
97578.615
97741.583
97939.979
98174.084
98436.726
98722.989
99025.665
99338.045
99653.001
99963.967
100264.9
100550.68
100817.21
101061.49
101281.67
101476.91
101647.37
101794.03
101918.51
102022.8
102109.16
102180.05
102237.9
102284.82
102323.41
102356.93
102377.84
102412.34
97602.249
97681.913
97789.511
97939.161
98120.922
98335.375
98576.173
98839.101
99117.783
99406.263
99698.125
99987.389
100268.47
100536.57
100787.74
101019.07
101228.6
101415.39
101579.37
101721.27
101842.38
101944.41
102029.35
102099.47
102157.02
102203.94
102242.49
102275.39
102296.41
102327.88
97815.303
97889.534
97988.478
98125.538
98291.634
98487.629
98707.939
98948.995
99205.19
99471.269
99741.474
100010.37
100272.81
100524.29
100761.04
100980.2
101179.77
101358.67
101516.61
101654.04
101771.99
101871.94
101955.69
102025.29
102082.79
102129.84
102168.35
102200.63
102221.67
102250.3
98016.042
98085.187
98175.955
98301.19
98452.602
98631.326
98832.477
99053.083
99288.242
99533.347
99783.252
100033.04
100277.97
100513.84
100737.05
100944.79
101135.03
101306.52
101458.76
101592
101707.08
101805.29
101888.17
101957.47
102014.95
102062.05
102100.43
102132.12
102153.2
102179.26
98205.155
98269.342
98352.395
98466.579
98604.291
98766.918
98950.205
99151.727
99367.231
99592.71
99823.598
100055.47
100283.99
100505.2
100715.69
100912.69
101094.11
101258.6
101405.54
101534.99
101647.65
101744.47
101826.61
101895.52
101952.83
101999.88
102038.18
102069.55
102090.86
102114.7
98382.341
98442.286
98518.233
98622.167
98747.155
98894.817
99061.479
99245.215
99442.38
99649.533
99862.652
100077.77
100290.88
100498.31
100696.77
100883.59
101056.72
101214.75
101356.92
101483.11
101593.65
101689.11
101770.29
101838.59
101895.73
101942.95
101981.53
102013.01
102034.74
102056.68
98549.666
98604.833
98674.016
98768.403
98881.587
99015.365
99166.603
99333.829
99513.951
99704.032
99900.535
100099.9
100298.48
100492.87
100680.01
100857.38
101022.92
101175.13
101313.01
101436.09
101544.36
101638.15
101718.29
101786.23
101843.72
101891.67
101930.96
101962.78
101984.88
102005.02
98704.231
98756.584
98819.959
98905.634
99007.988
99128.992
99265.999
99417.918
99582.14
99756.2
99937.054
100121.6
100306.59
100488.9
100665.67
100834.38
100992.91
101139.52
101273.02
101392.7
101498.53
101590.97
101670.82
101739.31
101797.9
101847.01
101886.97
101918.83
101940.84
101959.15
98853.606
98899.935
98957.128
99034.624
99126.986
99236.121
99359.817
99497.36
99646.674
99805.802
99972.21
100143.21
100315.82
100487.03
100653.97
100814.14
100965.44
101106.21
101235.31
101352.08
101456.57
101549.17
101630.04
101699.67
101759.25
101809.02
101848.96
101880.22
101901.79
101918.43
98983.813
99031.353
99084.93
99155.244
99238.291
99336.354
99447.813
99572.339
99708.275
99853.975
100007.19
100165.46
100326
100485.94
100642.64
100794.03
100938.53
101074.66
101201.17
101317.05
101422.01
101515.71
101597.24
101666.65
101725.68
101774.81
101814.1
101845.05
101866.92
101882.79
99124.72
99159.995
99205.489
99268.103
99342.912
99431.52
99532.302
99644.948
99768.02
99900.192
100039.73
100184.82
100333.24
100482.59
100630.67
100775.89
100916.71
101050.91
101176.42
101291.64
101395.73
101487.71
101566.42
101633.06
101690.95
101739.53
101779.08
101812.14
101836.41
101852.89
99217.044
99266.682
99316.136
99375.726
99443.432
99521.877
99610.513
99709.836
99819.343
99938.585
100066.59
100201.92
100342.4
100485.47
100628.66
100769.83
100906.72
101036.15
101156.51
101266.65
101365.51
101452.11
101526.44
101591.82
101652.34
101704.05
101746.54
101784.38
101812.14
101829.45
99382.719
99400.38
99428.9
99473.382
99529.296
99597.946
99678.13
99769.977
99872.832
99985.831
100107.23
100234.9
100366.53
100499.77
100631.83
100760.23
100884.2
101002.48
101115.44
101221.77
101318.81
101406.15
101484.84
101557.64
101624.57
101682.68
101729.42
101769.17
101796.65
101812.11
99379.711
99444.979
99500.693
99560.775
99624.751
99694.285
99769.36
99850.916
99939.314
100034.28
100134.88
100241.38
100353.88
100470.8
100588.61
100705.4
100823.48
100946.08
101068.68
101185.04
101291.66
101390.98
101483.87
101568.32
101633.87
101691.07
101737.86
101769.44
101789.38
101799.49
99670.499
99668.883
99673.968
99689.947
99712.599
99746.459
99791.16
99847.066
99914.462
99994.011
100086.81
100194.9
100315.75
100443.71
100574.37
100710.03
100850.6
100994.53
101130.48
101248.2
101352.71
101450.06
101538.73
101612.93
101666.44
101709.67
101748.54
101768.98
101783.09
101790.83
99463.344
99515.781
99573.481
99637.805
99714.504
99799.788
99889.907
99985.574
100087.07
100196.8
100316.5
100439.77
100558.85
100669.24
100781.1
100903.26
101023.88
101132.85
101227.72
101312.12
101393.01
101466.39
101524.87
101571.16
101621.55
101668.91
101701.51
101736.4
101767.03
101786.29
107063.48
107240.45
106378.38
105079.56
103508.4
102182.46
100950.71
99835.833
98823.219
97878.193
96982.11
96120.988
95285.927
94461.855
93632.288
92799.339
91982.507
91181.788
90350.294
89441.653
88493.28
87590.304
86739.278
85836.086
84799.038
83684.309
82606.1
81580.095
80539.543
79415.401
107025.52
107232.38
106338.72
105042.54
103493.83
102183.21
100959.52
99851.438
98843.56
97902.098
97009.116
96151.017
95318.973
94497.964
93671.743
92842.506
92029.784
91233.516
90406.876
89504.624
88563.508
87668.838
86828.048
85936.688
84909.437
83799.337
82728.419
81725.863
80706.08
79602.653
107136.02
107243.87
106233.75
104966.61
103455.17
102160.82
100945.72
99845.355
98839.535
97899.247
97006.893
96149.143
95317.268
94496.243
93669.951
92840.611
92027.841
91231.698
90405.353
89504.191
88563.594
87668.98
86828.639
85939.224
84916.518
83811.415
82741.274
81737.648
80721.516
79624.564
107243.75
107226.9
106156.71
104916.89
103442.93
102167.53
100962.99
99871.967
98870.999
97934.7
97045.688
96191.271
95362.794
94545.327
93723.004
92898.03
92089.968
91298.817
90477.744
89582.65
88649.383
87762.766
86930.496
86049.078
85035.342
83942.186
82887.037
81898.987
80899.492
79823.375
107338.33
107192.5
106070.16
104851.07
103398.45
102138.55
100942.64
99858.753
98860.427
97925.938
97037.637
96183.625
95355.304
94537.836
93715.617
92890.897
92083.235
91292.605
90472.195
89578.064
88646.146
87761.332
86931.444
86053.035
85042.589
83952.673
82901.28
81918.48
80926.623
79860.671
107376.56
107161
105997.75
104804.57
103386.44
102146.09
100962.67
99888.588
98896.606
97966.64
97082.407
96232.264
95407.743
94594.114
93776.03
92955.79
92152.899
91367.252
90552.196
89664.219
88739.264
87861.775
87039.454
86169.455
85169.056
84090.697
83051.459
82081.358
81104.233
80055.254
107392.5
107112.58
105912.01
104729.82
103338.18
102112.88
100939.06
99872.079
98883.766
97955.621
97072.44
96223.024
95399
94585.786
93768.314
92948.939
92147.086
91362.526
90548.778
89662.835
88740.712
87866.368
87047.235
86180.927
85185.503
84113.601
83081.91
82120.676
81155.264
80120.239
107404.51
107054.73
105841.81
104681.24
103322.12
102116.94
100957.31
99901.173
98920.053
97997.194
97118.523
96273.259
95453.161
94643.811
93830.446
93015.519
92218.341
91438.498
90629.706
89749.553
88834.158
87966.896
87154.852
86296.181
85309.737
84248.066
83227.102
82277.255
81325.328
80305.522
107401.61
106985.72
105751.82
104605.38
103272.04
102082.19
100933.73
99884.79
98908.293
97987.839
97110.906
96267.004
95448.031
94639.755
93827.721
93014.482
92219.204
91441.276
90634.707
89757.776
88846.64
87983.91
87176.335
86322.94
85343.722
84291.159
83280.327
82341.944
81404.259
80400.185
107385.63
106911.86
105676.88
104551.22
103249.66
102080.18
100947.7
99909.923
98941.422
98026.698
97154.591
96315.003
95499.976
94695.503
93887.474
93078.579
92287.787
91514.207
90712.168
89840.774
88936.26
88080.296
87279.058
86432.42
85461.621
84419.045
83418.769
82491.779
81567.688
80578.645
107354.84
106820.97
105585.84
104473.89
103198.42
102044.73
100925.33
99895.499
98932.925
98021.451
97151.982
96314.57
95501.439
94698.809
93892.938
93086.66
92298.709
91527.889
90728.949
89861.935
88963.131
88113.11
87317.499
86477.322
85515.305
84483.639
83495.233
82581.361
81672.833
80700.448
107304.27
106737.17
105503.32
104413.17
103168.66
102035.45
100933.38
99914.943
98961.047
98055.708
97191.341
96358.413
95549.265
94750.405
93948.49
93146.531
92362.968
91596.229
90801.533
89939.997
89047.95
88204.653
87415.005
86581.28
85627.881
84606.815
83629.727
82728.139
81833.938
80877.08
107246.04
106610.85
105409.59
104333.66
103116.19
101999.91
100912.42
99902.891
98956.597
98055.292
97194.611
96364.759
95558.329
94762.104
93963.174
93164.739
92384.883
91621.621
90830.751
89974.613
89089.55
88253.301
87469.981
86643.368
85699.773
84690.929
83727.033
82839.757
81961.879
81022.304
107163.38
106490.39
105321.1
104265.44
103078.87
101983.26
100913.63
99916.258
98978.727
98084.512
97229.227
96404.139
95601.833
94809.467
94014.598
93220.642
92445.268
91686.018
90899.339
90048.934
89171.151
88341.996
87564.676
86744.644
85810.333
84813.218
83861.942
82988.218
82125.569
81202.361
107055.91
106359
105221.92
104183.12
103024.4
101946.81
100893.25
99906.654
98977.583
98088.52
97237.983
96416.906
95618.124
94829.144
94038.03
93248.423
92477.498
91722.277
90939.97
90095.805
89226.078
88404.808
87634.205
86821.64
85897.913
84914.186
83977.358
83118.99
82273.191
81367.888
106937.52
106225.37
105126.09
104107.5
102979.54
101922.64
100887.66
99915.442
98993.344
98113.034
97268.373
96452.485
95658.128
94873.266
94086.511
93301.756
92535.613
91784.535
91006.598
90168.712
89307.101
88493.569
87729.235
86923.586
86010.028
85039.428
84116.804
83273.351
82443.663
81555.741
106808.44
106083.74
105021.43
104021.52
102922.22
101884.39
100866.89
99908.59
98992.511
98120.645
97281.5
96470.6
95680.529
94899.758
94117.475
93337.825
92576.769
91830.143
91057.007
90226.114
89373.543
88568.613
87811.255
87013.322
86111.082
85155.092
84248.273
83421.179
82608.799
81739.504
106670.15
105940.59
104917.5
103938.74
102869.94
101853.05
100854.43
99911.456
99004.39
98141.048
97308.604
96503.431
95718.259
94942.034
94164.595
93390.351
92634.536
91892.337
91123.924
90300.055
89456.616
88660.206
87909.483
87118.881
86227.787
85286.482
84395.593
83584.743
82789.284
81938.491
106521.37
105791.51
104806.56
103848.39
102808.83
101812.41
100832.64
99903.742
99004.054
98150.907
97324.86
96525.598
95745.466
94974.017
94201.756
93433.349
92683.208
91945.83
91182.625
90366.511
89533.097
88745.987
88002.484
87219.849
86340.858