/*--------------------------------*- C++ -*----------------------------------*\
  =========                 |
  \\      /  F ield         | OpenFOAM: The Open Source CFD Toolbox
   \\    /   O peration     | Website:  https://openfoam.org
    \\  /    A nd           | Version:  6
     \\/     M anipulation  |
\*---------------------------------------------------------------------------*/
FoamFile
{
    version     2.0;
    format      ascii;
    class       volVectorField;
    location    "0";
    object      U;
}
// * * * * * * * * * * * * * * * * * * * * * * * * * * * * * * * * * * * * * //

dimensions      [0 1 -1 0 0 0 0];

internalField   nonuniform List<vector> 
16000
(
(295.8902 -1.9452212e-17 -11.122101)
(299.22473 -2.4191536e-18 -15.023)
(302.14111 4.8795433e-18 -18.930786)
(304.4513 -2.4576216e-18 -22.968664)
(306.18698 0 -27.25012)
(307.40196 2.373136e-16 -31.732796)
(308.05941 1.5930038e-16 -36.410558)
(308.07853 1.6052313e-16 -41.277138)
(307.3547 -1.6156802e-16 -46.297679)
(305.88843 -1.0236212e-17 -51.458006)
(303.84394 1.6516971e-16 -56.797631)
(301.30316 2.0215829e-17 -62.336317)
(298.2154 -1.0557512e-17 -68.073425)
(294.4782 -1.6235475e-16 -73.98986)
(289.9932 1.5438188e-16 -80.098081)
(284.75052 1.8957709e-16 -86.477103)
(278.772 1.8360538e-16 -93.176452)
(271.98185 2.3510075e-17 -100.23158)
(264.24129 -1.5361325e-18 -107.68347)
(255.35877 -4.1793496e-16 -115.56435)
(245.02631 -2.5564538e-17 -123.82579)
(232.80992 -2.0908318e-16 -132.30638)
(218.14854 5.4281257e-17 -140.71683)
(200.39855 -1.5600525e-16 -148.46847)
(178.82794 1.3544842e-16 -154.43734)
(151.31223 0 -156.20543)
(115.40304 3.2244301e-18 -150.6727)
(74.495542 1.1624978e-17 -131.6218)
(41.411197 -1.4008389e-16 -83.91817)
(23.293263 -1.188393e-16 -30.65047)
(334.25559 0 6.3707118)
(337.57152 1.9437165e-18 3.6566395)
(340.46802 -1.9645394e-20 0.60080737)
(342.86928 1.9559791e-18 -2.6074916)
(344.7974 -2.4580204e-20 -5.93984)
(346.27224 -1.3236457e-16 -9.4245296)
(347.26691 -1.2948433e-16 -13.071944)
(347.73075 -2.5389501e-16 -16.891041)
(347.48808 -1.6626305e-17 -20.833159)
(346.40839 -1.2647547e-16 -24.875597)
(344.71611 -1.4575906e-16 -29.082613)
(342.45285 1.4777546e-16 -33.466912)
(339.48072 0 -38.020446)
(335.66801 1.4523459e-16 -42.769837)
(331.15389 -1.4900962e-16 -47.763237)
(326.18135 -1.7376173e-16 -53.041002)
(320.36046 -2.9713287e-16 -58.608137)
(313.63435 -2.0814648e-17 -64.526565)
(305.77131 1.9016362e-16 -70.841713)
(296.45909 3.7734464e-16 -77.622949)
(285.20067 -4.693074e-17 -84.886158)
(271.31566 2.230774e-16 -92.554828)
(253.94714 2.7124949e-17 -100.44219)
(232.17299 -2.7903933e-17 -107.99228)
(205.21101 2.3465371e-16 -113.89958)
(172.64556 3.4250182e-17 -116.1277)
(136.01588 -1.6609619e-16 -109.43923)
(97.872105 -3.4940603e-16 -92.745166)
(62.385715 1.1951972e-17 -64.81349)
(44.387435 1.298464e-16 -22.633775)
(318.92283 3.117912e-17 -8.5231153)
(321.66675 6.2737264e-17 -12.429455)
(323.97275 0 -16.438387)
(325.59147 -3.9628676e-18 -20.660075)
(326.79774 -1.2466742e-16 -25.075475)
(327.5936 0 -29.64544)
(327.93168 0 -34.369966)
(327.57835 7.8963753e-18 -39.248081)
(326.35118 -8.3696591e-18 -44.164133)
(324.4105 1.3593308e-16 -49.168034)
(321.94608 1.3799409e-16 -54.342197)
(319.06786 0 -59.642423)
(315.56678 -1.7922936e-17 -65.073515)
(311.34813 1.8037393e-17 -70.67578)
(306.34573 1.4922264e-16 -76.445257)
(300.59418 1.7077221e-16 -82.339423)
(294.05299 -2.0524564e-17 -88.377892)
(286.57528 0 -94.587716)
(277.97141 0 -100.92808)
(267.95394 -1.6999443e-16 -107.33855)
(256.10092 -1.7936713e-16 -113.62216)
(241.85698 -1.6166941e-16 -119.40382)
(224.60047 -2.4104031e-17 -124.14228)
(203.8207 -2.1381235e-16 -126.9635)
(179.28648 -2.2620082e-16 -127.51791)
(150.75518 -2.4909526e-16 -120.41002)
(121.18957 0 -107.74651)
(93.719967 1.4052725e-16 -85.529182)
(73.210325 0 -54.557385)
(62.912573 -4.5909194e-17 -18.120193)
(327.29008 -5.6614372e-17 3.7487701)
(330.49745 -5.692998e-17 0.92018121)
(333.21341 0 -2.1864813)
(335.3698 0 -5.4464759)
(336.98001 -2.7934479e-19 -8.8935502)
(338.00861 -7.3981331e-18 -12.515035)
(338.62455 7.5059702e-18 -16.322601)
(338.83109 -7.9969733e-18 -20.290984)
(337.68062 1.5434945e-17 -24.383779)
(336.18383 -7.8226696e-18 -28.666337)
(334.03222 0 -33.15835)
(331.34806 0 -37.855977)
(328.00294 -1.6740476e-17 -42.765668)
(323.8711 -1.1933644e-16 -47.939261)
(318.88582 -2.7866838e-16 -53.383303)
(313.05671 0 -59.085327)
(306.3123 2.7628505e-16 -65.082091)
(298.47568 1.8902204e-17 -71.39979)
(289.30652 1.3882244e-16 -78.036148)
(278.45788 -6.4246779e-19 -84.964542)
(265.45021 2.1390667e-16 -92.02202)
(249.70498 -2.2341755e-17 -98.815197)
(230.68302 2.1940471e-16 -104.73433)
(208.11514 -3.0006453e-17 -108.71894)
(182.14022 0 -108.79805)
(154.06974 -3.4337943e-17 -103.41174)
(126.48663 -1.9800905e-16 -90.901537)
(102.53547 1.0818212e-16 -70.775318)
(85.633049 1.2737411e-16 -44.702769)
(78.262865 0 -14.557671)
(321.72362 5.45699e-17 -6.1864625)
(324.53886 5.5031179e-17 -9.9613318)
(326.90663 5.2077732e-17 -13.866644)
(328.69424 3.5135604e-18 -17.975574)
(329.94041 1.1315584e-16 -22.254031)
(330.62345 1.1477019e-16 -26.691963)
(330.86623 -7.2455412e-18 -31.257879)
(330.30689 1.3209762e-16 -35.887678)
(329.07686 -1.4906895e-17 -40.582053)
(327.13805 1.5145776e-17 -45.395233)
(324.63417 7.7979842e-18 -50.309525)
(321.58452 1.2601625e-16 -55.320068)
(317.86892 -1.5875925e-17 -60.439623)
(313.36432 1.3035918e-16 -65.692615)
(308.02778 -9.1157162e-19 -71.043758)
(301.86759 -1.7305271e-17 -76.463098)
(294.8005 -1.4086156e-16 -81.968994)
(286.65442 -1.2817339e-16 -87.541116)
(277.19724 -1.4948536e-16 -93.111254)
(266.1024 1.9825168e-17 -98.563392)
(252.94072 -2.000537e-17 -103.63268)
(237.22412 0 -107.81982)
(218.58146 3.2579506e-18 -110.50981)
(197.03525 2.1591091e-16 -111.28595)
(172.97559 -2.474912e-17 -106.54387)
(148.74148 2.3774009e-16 -97.379555)
(126.10595 -2.7420362e-17 -82.283685)
(108.09628 -1.2095801e-16 -61.744472)
(96.399414 1.2460266e-17 -37.933916)
(91.456001 2.9326556e-17 -12.0862)
(324.33418 -2.540897e-17 1.5947992)
(327.38582 -4.9636746e-17 -1.3611562)
(329.94807 -5.3347478e-17 -4.5946612)
(331.93822 1.0806587e-16 -8.0032223)
(333.3834 1.0274188e-16 -11.612257)
(334.29156 -2.1462561e-16 -15.433095)
(334.62078 -6.807987e-18 -19.454084)
(334.62457 6.901022e-18 -23.593986)
(333.03535 -1.1243724e-16 -27.890263)
(331.24697 1.1459984e-16 -32.428295)
(328.73836 1.16818e-16 -37.137427)
(325.65595 -1.1852714e-16 -42.055022)
(321.83057 1.5325588e-17 -47.190589)
(317.14353 -1.546367e-17 -52.57334)
(311.54969 2.5534993e-16 -58.172919)
(305.03899 1.1521001e-16 -63.965401)
(297.50649 1.526031e-16 -69.954077)
(288.7631 1.3871902e-16 -76.102963)
(278.55733 0 -82.323857)
(266.5556 1.5154046e-16 -88.458141)
(252.36135 -1.5855574e-16 -94.178657)
(235.60422 -1.6661006e-16 -98.844415)
(216.18552 -1.7239142e-16 -101.58241)
(194.41969 -2.3576213e-17 -101.08578)
(171.42852 -1.6852424e-16 -96.570229)
(149.19562 1.9513447e-16 -86.913297)
(129.85377 1.8103815e-16 -72.033748)
(115.35989 1.0665623e-16 -53.101724)
(106.4676 -8.9225979e-19 -32.355228)
(102.8777 -5.0355703e-17 -10.172367)
(321.9864 -4.8501666e-17 -4.471893)
(324.81433 -5.0466112e-17 -8.0931211)
(327.17005 4.7943835e-17 -11.863988)
(328.94014 -9.6738034e-17 -15.828844)
(330.16184 2.4964601e-19 -19.959233)
(330.84272 2.0524274e-16 -24.248816)
(330.94462 0 -28.667351)
(330.36507 1.0576605e-16 -33.079183)
(329.00427 -4.0233346e-19 -37.630683)
(326.88951 -9.5460591e-17 -42.334562)
(324.20111 -1.2506359e-16 -47.068729)
(320.89826 1.428351e-17 -51.915034)
(316.84994 2.092345e-19 -56.869387)
(311.93629 2.548801e-19 -61.941844)
(306.12541 -1.3654637e-16 -67.085307)
(299.39537 -1.2471403e-16 -72.278185)
(291.62995 -1.1199381e-16 -77.513077)
(282.63763 1.3424837e-16 -82.731775)
(272.16615 -1.730986e-16 -87.817341)
(259.89911 -1.2470261e-16 -92.564643)
(245.50274 1.4852228e-16 -96.596169)
(228.73764 1.3544332e-16 -99.154924)
(209.73522 2.0074642e-17 -99.902807)
(189.08232 -1.7264032e-16 -97.157893)
(168.35913 2.200377e-16 -90.309175)
(149.10822 -2.1969053e-16 -79.219561)
(133.28889 0 -64.171556)
(122.09674 0 -46.453348)
(115.54497 -8.3636043e-17 -28.078613)
(112.9202 2.5268869e-19 -8.7145867)
(322.70059 4.5550514e-17 0.068250986)
(325.62419 4.5990884e-17 -3.0173164)
(328.05178 -4.9403836e-17 -6.3744577)
(329.89331 2.9592269e-18 -9.9245187)
(331.17601 -9.5431557e-17 -13.684514)
(331.91399 -9.6804793e-17 -17.646742)
(332.13971 9.8610865e-17 -21.794646)
(331.41453 -9.9812021e-17 -26.046594)
(330.0305 1.1444487e-16 -30.516492)
(327.84451 -1.2958884e-17 -35.17839)
(325.05227 0 -39.983712)
(321.59035 0 -44.973192)
(317.32048 -1.2515246e-16 -50.154135)
(312.12811 1.4248938e-16 -55.519502)
(305.98335 1.0270034e-16 -61.011993)
(298.85098 0 -66.593857)
(290.60554 1.5563972e-16 -72.224872)
(281.05556 -1.5838397e-16 -77.807162)
(269.9592 1.3131533e-16 -83.16949)
(257.0421 0 -88.02543)
(242.07454 3.6651443e-17 -91.924209)
(225.00393 -3.6594068e-17 -94.205449)
(206.15928 0 -93.903063)
(186.47687 3.4140564e-16 -90.249583)
(167.48079 -3.255585e-16 -82.701456)
(150.75002 -1.9782597e-17 -71.346103)
(137.6943 1.368319e-16 -56.93228)
(128.86317 1.6925968e-16 -40.769279)
(123.86162 4.6604167e-18 -24.59242)
(121.85452 3.405481e-17 -7.5509977)
(321.46048 1.3445662e-18 -3.3762097)
(324.25193 -1.3748427e-18 -6.863324)
(326.55167 9.1419205e-17 -10.525116)
(328.2557 -2.8136222e-18 -14.379728)
(329.39686 8.5472716e-17 -18.407258)
(329.98447 9.2555775e-17 -22.582131)
(329.98947 -9.3676012e-17 -26.873526)
(329.273 -1.0153333e-16 -31.224535)
(327.70145 1.095096e-16 -35.73259)
(325.3737 0 -40.341949)
(322.4282 1.2719139e-17 -45.015017)
(318.79373 -2.5851441e-17 -49.799952)
(314.32936 2.2474327e-16 -54.700334)
(308.93 -1.081166e-16 -59.697932)
(302.56811 -2.2290809e-16 -64.735767)
(295.19566 0 -69.779899)
(286.68052 -1.1750675e-16 -74.780383)
(276.83444 0 -79.624344)
(265.43329 0 -84.118673)
(252.25533 1.3202839e-16 -87.942143)
(237.17687 0 -90.599781)
(220.31365 3.6277128e-17 -91.438218)
(202.19946 -7.3275133e-17 -89.704772)
(183.99251 -1.5030133e-16 -84.648525)
(167.0864 5.0452075e-16 -76.147366)
(152.83658 -1.8380358e-16 -64.590786)
(142.21114 -1.4278237e-16 -50.869002)
(135.2817 -1.114953e-16 -36.116318)
(131.44998 -1.251985e-17 -21.77264)
(129.88013 -1.3174755e-17 -6.6153574)
(321.46624 -1.2713935e-18 -0.92178484)
(324.2801 1.3005845e-18 -4.1024745)
(326.58485 -1.6759766e-16 -7.5456444)
(328.28736 8.5096498e-17 -11.192091)
(329.41073 -8.6139715e-17 -15.053892)
(329.95138 2.9584392e-19 -19.107255)
(330.13183 -1.1146232e-17 -23.29526)
(329.05337 1.0177548e-16 -27.620187)
(327.42991 -9.2303746e-17 -32.17498)
(324.96701 0 -36.855455)
(321.86881 9.6809188e-17 -41.660022)
(318.02952 0 -46.614628)
(313.31279 -1.0077041e-16 -51.716533)
(307.62246 0 -56.924563)
(300.93272 7.9198394e-17 -62.165899)
(293.18744 2.7144788e-17 -67.38322)
(284.25566 -2.8743699e-17 -72.490869)
(273.96293 1.7609392e-16 -77.334892)
(262.12015 -1.5144454e-16 -81.673132)
(248.58078 -1.2441948e-16 -85.1346)
(233.34907 0 -87.191436)
(216.72226 -1.3503908e-16 -87.18891)
(199.42934 0 -84.478019)
(182.65426 2.7890597e-16 -78.630544)
(167.68554 -1.3766659e-16 -69.739076)
(155.59421 1.1749696e-16 -58.39972)
(146.92335 -1.1297565e-16 -45.573079)
(141.42003 7.7762571e-18 -32.184834)
(138.42217 5.2870395e-17 -19.430297)
(137.1537 0 -5.8449893)
(320.61412 0 -2.7610876)
(323.34522 0 -6.1537693)
(325.566 8.4511881e-17 -9.7452923)
(327.17804 -1.7175118e-16 -13.533972)
(328.21119 -7.7084773e-17 -17.508366)
(328.67998 -1.6694113e-16 -21.633539)
(328.53663 1.0613448e-17 -25.824509)
(327.61301 -9.7357484e-17 -30.16507)
(325.79278 1.1073916e-17 -34.68569)
(323.2171 7.9165013e-17 -39.256534)
(319.96594 -1.8430352e-16 -43.914237)
(315.94838 2.3761234e-17 -48.677898)
(311.02409 7.3038626e-17 -53.543775)
(305.10854 2.5090801e-17 -58.462322)
(298.17472 -1.2773942e-16 -63.362444)
(290.15921 0 -68.181941)
(280.93464 0 -72.819105)
(270.34509 -1.110968e-16 -77.098308)
(258.24516 -1.4644255e-18 -80.748131)
(244.57238 0 -83.370793)
(229.45971 0 -84.441954)
(213.36224 1.2592244e-16 -83.370352)
(197.13613 0 -79.644115)
(181.93308 -1.6073522e-16 -73.064328)
(168.85196 3.1252199e-17 -63.932885)
(158.67477 -1.0740682e-16 -52.953713)
(151.61294 1.0386207e-16 -41.035408)
(147.21716 0 -28.875104)
(144.84306 -6.2642386e-17 -17.470755)
(143.79212 7.1353372e-18 -5.2037684)
(320.27858 0 -1.5321361)
(322.98494 -2.3181161e-18 -4.767236)
(325.16857 2.3723422e-18 -8.2585644)
(326.73597 8.140319e-17 -11.95976)
(327.71541 7.786116e-17 -15.87014)
(328.12657 7.4240287e-17 -19.949861)
(327.90112 0 -24.141409)
(326.85557 7.1790381e-17 -28.524432)
(324.9075 -8.1280243e-20 -33.088559)
(322.18905 -7.5076338e-17 -37.738547)
(318.76286 2.1626898e-17 -42.49006)
(314.52796 -1.128154e-16 -47.356651)
(309.35045 -1.6156529e-16 -52.317246)
(303.15707 -2.3526804e-17 -57.302725)
(295.92176 -9.1110844e-19 -62.227301)
(287.57976 -2.5529729e-17 -67.00594)
(278.01559 5.1914668e-17 -71.506702)
(267.1031 -1.339042e-16 -75.521778)
(254.75507 2.2073595e-16 -78.747204)
(241.00559 0 -80.76546)
(226.1173 -2.9873544e-17 -81.070118)
(210.67512 1.4920628e-16 -79.157119)
(195.59091 1.2082695e-16 -74.687931)
(181.92336 -1.1945086e-16 -67.676446)
(170.56322 2.9604077e-17 -58.564223)
(162.01642 8.5306136e-17 -48.099705)
(156.24458 0 -37.097154)
(152.69516 0 -26.04882)
(150.78379 0 -15.806537)
(149.88955 -6.5129423e-18 -4.6623764)
(319.59076 -7.1060854e-17 -2.4698392)
(322.2341 1.112103e-18 -5.8028251)
(324.34904 -7.6412738e-17 -9.3563521)
(325.84152 4.5763286e-18 -13.11439)
(326.74385 6.5105041e-17 -17.056589)
(327.07675 8.5144367e-17 -21.13501)
(326.75135 0 -25.319155)
(325.57891 -8.8508283e-17 -29.679912)
(323.50183 9.9986337e-18 -34.180394)
(320.64784 2.0653675e-17 -38.737456)
(317.05798 6.2917744e-17 -43.374332)
(312.62558 -5.919932e-19 -48.100237)
(307.224 1.7689627e-16 -52.886974)
(300.79075 2.3006998e-17 -57.657281)
(293.30004 1.6395846e-16 -62.321587)
(284.68879 9.6785943e-17 -66.781406)
(274.85824 0 -70.884018)
(263.71914 1.0164247e-16 -74.398403)
(251.25047 -1.3154516e-16 -77.000055)
(237.58516 2.4432968e-16 -78.270635)
(223.1019 -1.94324e-16 -77.745787)
(208.47587 -1.3932325e-16 -75.025626)
(194.61597 1.1333322e-16 -69.934044)
(182.44767 1.9411624e-16 -62.649956)
(172.64652 2.6695514e-17 -53.699539)
(165.48375 0 -43.813011)
(160.75141 9.9396426e-17 -33.681759)
(157.85852 0 -23.622486)
(156.29838 4.0748227e-17 -14.38026)
(155.51964 1.2035052e-17 -4.2007756)
(319.08928 6.6265651e-17 -1.9088718)
(321.68716 -6.7329993e-17 -5.1673044)
(323.74593 6.3917884e-17 -8.6813135)
(325.17579 4.3522726e-18 -12.409677)
(326.01054 -7.0526804e-17 -16.332397)
(326.26804 -6.279743e-17 -20.400581)
(325.83855 -9.159719e-18 -24.605324)
(324.53394 6.5281575e-17 -29.001989)
(322.31885 9.5432778e-18 -33.535338)
(319.31325 -7.8663114e-17 -38.131131)
(315.53894 8.0608572e-17 -42.804763)
(310.88618 6.1308289e-17 -47.554725)
(305.23909 -6.3338045e-17 -52.335611)
(298.54668 2.2041723e-17 -57.055263)
(290.78602 -1.1127245e-16 -61.611389)
(281.90164 -9.1725957e-17 -65.885109)
(271.8191 0 -69.700121)
(260.49503 -2.2141001e-16 -72.803838)
(247.98197 2.4673924e-17 -74.860001)
(234.50968 2.2059167e-18 -75.466339)
(220.55215 -1.9271348e-18 -74.222491)
(206.83142 -2.38383e-16 -70.849007)
(194.20468 -1.8362496e-16 -65.322888)
(183.44247 -2.0601451e-16 -57.946572)
(175.01727 0 -49.283986)
(169.01141 2.4154873e-17 -40.012291)
(165.1113 -3.5079419e-17 -30.698939)
(162.72803 1.1007097e-17 -21.520101)
(161.43578 -4.3454448e-17 -13.14518)
(160.74259 0 -3.8032813)
(318.43302 0 -2.3772459)
(320.97057 6.3855104e-17 -5.6737573)
(322.96135 -4.0471042e-18 -9.2086253)
(324.31849 4.1419889e-18 -12.95281)
(325.07891 -8.4028601e-18 -16.872993)
(325.25343 8.5744794e-18 -20.924396)
(324.71343 7.003707e-17 -25.115384)
(323.27663 0 -29.483955)
(320.92684 0 -33.962275)
(317.77334 1.3101933e-16 -38.488676)
(313.82022 -5.7484697e-17 -43.077091)
(308.95727 0 -47.718858)
(303.08098 -2.0491978e-17 -52.357032)
(296.15157 4.1721299e-17 -56.890836)
(288.15059 -2.1179275e-17 -61.209207)
(279.03496 -2.242038e-17 -65.176485)
(268.76041 -7.3622139e-19 -68.597365)
(257.33568 2.0851814e-16 -71.204197)
(244.889 0 -72.660035)
(231.73761 -1.9412978e-16 -72.593656)
(218.4241 5.4287357e-16 -70.681306)
(205.67672 2.4591872e-16 -66.762335)
(194.26659 0 -60.940687)
(184.80309 1.6718054e-16 -53.598907)
(177.57938 2.0781575e-16 -45.299451)
(172.5367 1.7739875e-16 -36.6438)
(169.30508 -1.4909549e-16 -28.083749)
(167.32132 -1.0197767e-16 -19.686239)
(166.23625 3.9924379e-17 -12.066911)
(165.60726 0 -3.4582195)
(317.83572 -1.863117e-18 -2.15715)
(320.31551 1.9097347e-18 -5.419854)
(322.23884 0 -8.9414236)
(323.52436 -7.8510168e-18 -12.676432)
(324.20971 8.0267733e-18 -16.588287)
(324.29544 0 -20.638521)
(323.63661 -7.4861796e-17 -24.846863)
(322.06117 8.5043602e-18 -29.231818)
(319.56892 -1.756996e-17 -33.715367)
(316.25668 1.0814245e-16 -38.241887)
(312.11337 -1.8246719e-17 -42.817708)
(307.03177 0 -47.421577)
(300.92288 -1.9629728e-17 -51.981061)
(293.75881 1.9733053e-17 -56.384316)
(285.52886 -1.4420731e-16 -60.508452)
(276.20788 -2.0825794e-17 -64.200686)
(265.78784 -4.4164031e-17 -67.249885)
(254.33424 -1.3517592e-16 -69.380862)
(242.049 -4.6335778e-17 -70.269018)
(229.32204 2.3100046e-16 -69.589954)
(216.735 -3.2366856e-16 -67.10714)
(204.98723 1.8717719e-16 -62.7731)
(194.74231 -4.5063417e-17 -56.792135)
(186.45428 -1.7809727e-16 -49.591014)
(180.26647 -1.5058012e-16 -41.703961)
(176.02131 -1.8596508e-16 -33.649052)
(173.3271 7.9368496e-17 -25.777795)
(171.65833 7.6357202e-17 -18.075042)
(170.7347 -3.0372925e-19 -11.118075)
(170.15423 0 -3.1564121)
(317.16181 -5.5310056e-17 -2.3991608)
(319.57741 -5.6170343e-17 -5.6721291)
(321.42834 -5.8976576e-17 -9.1971342)
(322.63892 4.881558e-17 -12.93037)
(323.24658 -4.5933268e-17 -16.828209)
(323.23864 -1.5586237e-17 -20.861426)
(322.45724 -8.0056002e-18 -25.05638)
(320.74359 3.2596379e-17 -29.413526)
(318.10989 -1.662131e-17 -33.850526)
(314.63912 -1.1928851e-16 -38.319204)
(310.30764 1.0590305e-16 -42.820147)
(305.01419 -3.4833159e-19 -47.321045)
(298.68558 -4.1595682e-19 -51.736931)
(291.30635 1.8890814e-17 -55.94747)
(282.87664 1.5650094e-16 -59.819112)
(273.39419 0 -63.184376)
(262.89181 -1.6669769e-16 -65.820811)
(251.49324 2.120775e-16 -67.453333)
(239.46753 -2.16144e-16 -67.780578)
(227.25848 1.7680801e-16 -66.534944)
(215.4581 1.7569724e-16 -63.568303)
(204.70984 4.8595937e-19 -58.931481)
(195.56038 -2.1354e-16 -52.899907)
(188.32275 4.1018806e-17 -45.914214)
(183.02166 -1.5939013e-16 -38.462614)
(179.43607 0 -30.980159)
(177.17568 1.4659487e-16 -23.734694)
(175.7573 -6.1673792e-17 -16.650713)
(174.96073 -4.7807565e-17 -10.277393)
(174.41729 4.4064151e-18 -2.8907051)
(316.49394 -1.4730004e-19 -2.3438268)
(318.84274 1.1019427e-16 -5.6005043)
(320.61839 5.597241e-17 -9.1201924)
(321.75203 -1.7150193e-16 -12.847071)
(322.27817 5.0859007e-17 -16.736288)
(322.16927 1.4871296e-17 -20.767504)
(321.25845 -7.5843921e-18 -24.968098)
(319.40245 0 -29.320221)
(316.6225 0 -33.738134)
(312.98734 1.3144209e-16 -38.176856)
(308.46403 -1.1708745e-16 -42.627844)
(302.9604 -1.7138311e-17 -47.045183)
(296.42038 -3.6028755e-17 -51.330938)
(288.84198 -9.4586902e-19 -55.35614)
(280.23977 3.7143922e-17 -58.976714)
(270.63896 0 -62.01333)
(260.11628 1.5758569e-16 -64.238119)
(248.85216 -1.6238265e-16 -65.385432)
(237.1722 1.6340726e-16 -65.18836)
(225.55325 -1.6367423e-16 -63.443795)
(214.57197 -4.1102613e-17 -60.08903)
(204.79756 -1.2250275e-16 -55.255857)
(196.65972 3.184241e-16 -49.264685)
(190.34972 0 -42.547596)
(185.80306 7.0083872e-19 -35.537801)
(182.76261 0 -28.593582)
(180.85366 -1.3753046e-16 -21.915274)
(179.63568 6.6261353e-17 -15.384075)
(178.93988 0 -9.5277873)
(178.42496 0 -2.6553815)
(315.77986 1.0330245e-16 -2.4854634)
(318.05788 -5.2405254e-17 -5.7407004)
(319.75536 -1.0706169e-16 -9.2563141)
(320.8103 1.0875053e-16 -12.973164)
(321.25211 0 -16.845369)
(321.0373 1.1372518e-16 -20.861825)
(319.99402 0 -25.047388)
(317.99558 1.1928969e-16 -29.368738)
(315.06895 -1.2245188e-16 -33.740095)
(311.26887 -1.2492426e-16 -38.119175)
(306.55646 1.6258595e-17 -42.488318)
(300.85143 -1.6406944e-17 -46.78862)
(294.11572 0 -50.911058)
(286.36208 0 -54.719223)
(277.62292 -3.6572839e-17 -58.059765)
(267.9545 3.6411009e-17 -60.744893)
(257.4785 3.8412779e-17 -62.547153)
(246.4273 7.6194835e-17 -63.218485)
(235.16964 -1.5735982e-16 -62.534349)
(224.19458 -1.1721033e-16 -60.35833)
(214.04272 4.841296e-19 -56.704467)
(205.19881 1.1410889e-16 -51.76595)
(197.98268 -1.1206309e-16 -45.885243)
(192.48503 -1.4378949e-16 -39.470034)
(188.57804 2.4258983e-16 -32.895624)
(185.98868 -9.960328e-17 -26.452434)
(184.36578 -1.2749128e-16 -20.287462)
(183.30937 1.3831004e-16 -14.251614)
(182.69417 -1.5091273e-17 -8.8555625)
(182.20147 0 -2.4458541)
(315.04971 -4.9127837e-17 -2.5069601)
(317.25305 -1.0020491e-16 -5.7519983)
(318.86911 2.0380998e-16 -9.2618794)
(319.84276 6.4885318e-18 -12.968751)
(320.19558 9.9659282e-17 -16.829102)
(319.86834 -1.080888e-16 -20.83889)
(318.68822 1.1118338e-16 -25.016457)
(316.54541 -1.2769138e-16 -29.314305)
(313.46978 2.4806567e-16 -33.646993)
(309.5031 0 -37.972075)
(304.60415 1.2379375e-16 -42.260972)
(298.70705 -1.2739054e-16 -46.441396)
(291.7925 -1.311063e-16 -50.394341)
(283.88948 1.348319e-16 -53.976863)
(275.05138 1.0346117e-16 -57.028254)
(265.36786 3.4785244e-17 -59.356707)
(255.00438 0 -60.741957)
(244.23769 -1.4677383e-16 -60.96161)
(233.46461 3.3216392e-16 -59.8394)
(223.16737 -1.8391114e-16 -57.304335)
(213.83521 -1.4564628e-16 -53.435875)
(205.86543 -1.4303273e-16 -48.469869)
(199.47947 0 -42.752662)
(194.68845 1.3481406e-16 -36.657841)
(191.32267 -2.5904683e-16 -30.50437)
(189.10724 1.5593265e-16 -24.524723)
(187.7182 2.242848e-16 -18.824464)
(186.79296 -1.4458309e-16 -13.234034)
(186.2427 7.0436412e-17 -8.2495591)
(185.76752 0 -2.2583897)
(314.28402 9.3918279e-17 -2.6089174)
(316.40931 9.8200107e-17 -5.8474167)
(317.94164 3.3776318e-18 -9.3484705)
(318.83208 -1.8124308e-20 -13.040255)
(319.09213 -1.0737749e-16 -16.882643)
(318.64769 0 -20.877126)
(317.32865 -1.057108e-16 -25.033459)
(315.04155 0 -29.292838)
(311.81679 7.2634872e-19 -33.571425)
(307.68482 -2.8961915e-17 -37.825285)
(302.6057 -1.182055e-16 -42.014519)
(296.53006 1.818565e-16 -46.054315)
(289.45795 -3.1984039e-17 -49.817346)
(281.43609 -1.2791183e-16 -53.155356)
(272.54142 -2.3011957e-16 -55.902616)
(262.89786 -6.7443152e-17 -57.867833)
(252.71116 1.7156282e-16 -58.844139)
(242.29279 2.4250211e-16 -58.640998)
(232.05233 3.5126475e-17 -57.132891)
(222.44906 1.3869313e-16 -54.309196)
(213.9114 -1.3717277e-16 -50.301577)
(206.75159 -3.3800372e-17 -45.371463)
(201.10667 3.2321289e-17 -39.855378)
(196.92745 0 -34.087851)
(194.01925 1.2143476e-16 -28.33574)
(192.11461 -1.1602231e-16 -22.78321)
(190.91765 -9.8273066e-17 -17.504013)
(190.09962 -2.6994844e-17 -12.315471)
(189.60211 -3.9896845e-17 -7.7006336)
(189.14099 0 -2.0899288)
(313.49283 -8.7879272e-17 -2.6661315)
(315.53623 -4.2622397e-18 -5.8951166)
(316.98203 -8.9683391e-17 -9.3864305)
(317.7865 0 -13.063091)
(317.94897 0 -16.889871)
(317.38229 0 -20.870907)
(315.92226 0 -25.005418)
(313.49074 0 -29.225183)
(310.11687 -2.1387363e-16 -33.447768)
(305.82207 0 -37.625721)
(300.57114 1.1355706e-16 -41.7072)
(294.33286 -8.7422753e-17 -45.595827)
(287.12714 8.9612842e-17 -49.157603)
(279.01982 0 -52.240553)
(270.1131 3.08878e-17 -54.676998)
(260.56436 -3.1696792e-17 -56.281186)
(250.61419 -1.3013082e-16 -56.865606)
(240.59774 -2.6361931e-16 -56.276199)
(230.92303 -1.3168779e-16 -54.437994)
(222.01398 2.2921634e-16 -51.393361)
(214.23373 1.6074778e-16 -47.312802)
(207.81586 0 -42.468962)
(202.82768 -9.1213035e-17 -37.179148)
(199.17643 -2.9308918e-17 -31.737495)
(196.6552 0 -26.364423)
(195.00957 1.0931264e-16 -21.20455)
(193.97113 2.6250548e-17 -16.30743)
(193.24132 -2.529365e-17 -11.482749)
(192.787 0 -7.2012183)
(192.33737 0 -1.9379393)
(312.66899 -8.8078166e-17 -2.7554227)
(314.62741 -8.4267229e-17 -5.9745587)
(315.98459 8.8744348e-17 -9.4523697)
(316.70062 1.1298313e-17 -13.109786)
(316.76126 3.9657192e-21 -16.916791)
(316.06859 -1.0662543e-16 -20.877854)
(314.46695 9.7239785e-17 -24.981056)
(311.89206 0 -29.151087)
(308.37074 1.7895495e-16 -33.30684)
(303.91803 1.3181637e-16 -37.395991)
(298.50669 -2.4408762e-16 -41.354842)
(292.1249 1.3861876e-16 -45.076897)
(284.8127 0 -48.423235)
(276.65624 -2.9826756e-17 -51.239963)
(267.7836 1.495286e-16 -53.360747)
(258.38315 9.1963528e-17 -54.610143)
(248.72324 -9.4019193e-17 -54.824813)
(239.15141 6.2700074e-17 -53.889563)
(230.06156 -6.1611202e-17 -51.777116)
(221.83378 -1.2318641e-16 -48.573852)
(214.76574 -1.8233122e-16 -44.476453)
(209.0212 5.860601e-17 -39.757334)
(204.61187 3.4323373e-16 -34.708779)
(201.41534 -2.7700289e-17 -29.585664)
(199.22166 2.6488006e-17 -24.568121)
(197.79261 2.5581463e-17 -19.768809)
(196.88556 6.1890275e-20 -15.219018)
(196.22887 7.1064071e-17 -10.724866)
(195.81019 0 -6.7450086)
(195.37019 0 -1.8003108)
(311.81532 1.6023881e-16 -2.8299132)
(313.68549 1.6323577e-16 -6.0374232)
(314.9517 -8.4394679e-17 -9.5000874)
(315.57633 5.40818e-18 -13.137308)
(315.53067 8.85498e-17 -16.924244)
(314.70881 9.0195179e-17 -20.863036)
(312.96559 -9.2500186e-17 -24.930375)
(310.24899 -2.3983993e-17 -29.045536)
(306.58309 -1.9639583e-16 -33.128041)
(301.97947 -7.5456705e-17 -37.119395)
(296.42172 1.0338307e-16 -40.944467)
(289.91814 0 -44.488346)
(282.52912 0 -47.60906)
(274.36169 2.8516541e-17 -50.153)
(265.5693 -2.8348093e-17 -51.958783)
(256.36736 8.232488e-19 -52.865771)
(247.04392 1.776053e-16 -52.738448)
(237.94798 -2.637412e-19 -51.500886)
(229.44932 1.7640136e-16 -49.168745)
(221.87934 1.1661934e-16 -45.862895)
(215.47333 1.1408385e-16 -41.795035)
(210.33521 2.2171198e-16 -37.228849)
(206.43401 -7.5334607e-19 -32.428673)
(203.62871 -2.0681148e-16 -27.612835)
(201.71273 -1.9897237e-16 -22.927216)
(200.46535 0 -18.458906)
(199.66771 0 -14.225502)
(199.07202 -1.1721284e-17 -10.032578)
(198.68301 -2.7232761e-17 -6.3267142)
(198.25129 -1.653144e-17 -1.6752706)
(310.92915 -7.5144619e-17 -2.9171891)
(312.7084 -1.6084101e-16 -6.1112691)
(313.88167 0 -9.5552573)
(314.412 -9.309416e-17 -13.169071)
(314.25614 -1.5836891e-16 -16.932309)
(313.30305 8.6763388e-17 -20.84273)
(311.41942 -2.2310395e-17 -24.866147)
(308.56387 1.1427629e-16 -28.917969)
(304.75795 -6.5717559e-19 -32.91761)
(300.01291 0 -36.79958)
(294.32544 9.9804407e-17 -40.478203)
(287.72436 -7.6771289e-17 -43.832054)
(280.29031 -2.5941272e-17 -46.718019)
(272.15121 0 -48.985139)
(263.48412 -5.5601987e-17 -50.480512)
(254.52635 -1.1121702e-16 -51.062066)
(245.57716 -3.3714847e-16 -50.624248)
(236.97731 5.5454504e-17 -49.128881)
(229.06509 -1.1134361e-16 -46.62846)
(222.12166 -1.6415574e-16 -43.268994)
(216.32518 -5.3233942e-17 -39.267875)
(211.72996 -4.1727436e-16 -34.874174)
(208.2735 -4.0370393e-16 -30.323519)
(205.80475 2.4388331e-16 -25.801235)
(204.12466 3.2801583e-16 -21.424533)
(203.03018 0 -17.260196)
(202.32403 -8.661265e-17 -13.315619)
(201.77957 -5.000596e-19 -9.3980679)
(201.41549 5.1619057e-17 -5.9418696)
(200.99113 4.8150051e-20 -1.56132)
(310.01102 -7.2028338e-17 -3.0004068)
(311.69676 1.4893402e-16 -6.1790534)
(312.77502 8.706123e-17 -9.6020517)
(313.20802 1.3816529e-16 -13.190658)
(312.93842 9.0681037e-17 -16.927813)
(311.85304 4.7182064e-19 -20.805076)
(309.83109 0 -24.77817)
(306.84041 5.8088151e-19 -28.7597)
(302.90081 8.9605286e-17 -32.66808)
(298.02619 0 -36.430365)
(292.22815 -1.1893021e-16 -39.951613)
(285.55599 2.1997955e-16 -43.105919)
(278.11017 -1.0080967e-16 -45.751048)
(270.03877 0 -47.74123)
(261.53958 0 -48.93538)
(252.86588 2.6543449e-16 -49.212895)
(244.31988 -5.3575895e-17 -48.498865)
(236.226 -2.6672862e-16 -46.789848)
(228.88635 -1.5866425e-16 -44.168416)
(222.53283 -2.0701436e-16 -40.797132)
(217.29315 -2.0194487e-16 -36.891718)
(213.18167 5.5109838e-19 -32.682995)
(210.11375 1.4253231e-16 -28.37862)
(207.93464 9.1434056e-17 -24.134807)
(206.45531 -7.3029153e-19 -20.045049)
(205.48994 -2.1137069e-16 -16.16008)
(204.86062 8.1947275e-17 -12.479758)
(204.35951 -7.9324354e-17 -8.8146891)
(204.01658 0 -5.5866799)
(203.59895 9.7314713e-18 -1.4571836)
(309.05991 1.4401151e-16 -3.0886102)
(310.65003 -7.4430459e-17 -6.249368)
(311.6314 -7.3695089e-17 -9.6481273)
(311.96416 -8.4780133e-17 -13.208559)
(311.57805 9.6602765e-18 -16.915534)
(310.36047 4.6183561e-19 -20.7532)
(308.2034 0 -24.668298)
(305.08269 -1.045119e-16 -28.571401)
(301.0177 2.1392969e-17 -32.379105)
(296.0277 -8.8983251e-17 -36.011008)
(290.14048 9.1545844e-17 -39.36448)
(283.42535 -9.3329945e-17 -42.311215)
(276.00181 9.5665044e-17 -44.711887)
(268.03655 9.8413819e-17 -46.428438)
(259.74434 9.9997611e-17 -47.334461)
(251.38808 5.0518548e-17 -47.332664)
(243.2654 2.0058572e-16 -46.378067)
(235.67817 4.5246928e-16 -44.497841)
(228.89004 -1.8004301e-19 -41.797754)
(223.08662 4.3965861e-16 -38.449449)
(218.35229 1.4327345e-16 -34.661489)
(214.67031 1.8497402e-16 -30.644588)
(211.94146 -4.4753872e-17 -26.580153)
(210.01181 4.2905853e-17 -22.599154)
(208.70376 -4.2301652e-17 -18.775632)
(207.84776 1.9978069e-16 -15.147694)
(207.28323 0 -11.709682)
(206.81909 0 -8.2767586)
(206.49431 0 -5.2579012)
(206.08303 9.105128e-18 -1.3617697)
(308.07584 -6.7640862e-17 -3.175723)
(309.56845 0 -6.316122)
(310.45108 7.0806525e-17 -9.6879276)
(310.68087 0 -13.217577)
(310.17627 7.4195153e-17 -16.890359)
(308.82773 1.9500483e-17 -20.682239)
(306.53984 -3.902564e-17 -24.53215)
(303.29558 1.9943122e-17 -28.349085)
(299.11546 2.0814218e-17 -32.04713)
(294.02651 -6.4581173e-17 -35.538846)
(288.07337 -4.3749497e-17 -38.715738)
(281.34455 0 -41.449182)
(273.97734 -4.6479635e-17 -43.604806)
(266.15473 -9.4452995e-17 -45.054646)
(258.10411 -9.5865711e-17 -45.689225)
(250.09171 -3.3573143e-16 -45.435342)
(242.40413 -4.8457556e-17 -44.27607)
(235.31637 -1.4324183e-16 -42.264411)
(229.05343 1.8797468e-16 -39.522784)
(223.75882 -1.3795302e-16 -36.225723)
(219.4808 -4.4578222e-17 -32.570833)
(216.17919 4.3636398e-17 -28.748211)